147
Properties=species:S:1:pos:R:3:momenta:R:3:forces:R:3:energies:R:1 barriertype=s energy=-412.0444030761719 free_energy=-412.0444030761719 pbc="F F F"
Au      -5.13758328      -6.36753528      -0.00078054      38.56629766     -17.53624864       0.02415635      -0.00054788      -0.00189977       0.00019212      -2.85068154
Au      -5.78319662      -4.40581266      -1.78254100       7.70810205      -8.67544588       9.43070647      -0.00109882       0.00090256      -0.00141490      -2.84675908
Au      -6.19733978      -2.21435665      -3.57001841      -1.21297328     -11.18717870       9.99913324      -0.00092409      -0.00037809       0.00090301      -2.85571170
Au      -5.78629021      -4.40707072       1.78339295       7.72915915      -8.77546984      -9.42413675      -0.00091942       0.00056460       0.00115598      -2.84675670
Au      -6.37942853      -2.20491063      -0.00031237      -1.08868972       1.82608322       0.04512466      -0.00012393       0.00139650      -0.00012544      -2.88391399
Au      -6.19889690      -2.21872435       3.56803266      -1.26472357     -11.23332996     -10.08202147      -0.00086927       0.00032176      -0.00046192      -2.85571265
Au      -6.39406021      -0.00382932      -5.15199864     -17.55075791      -0.01249714      38.30585199      -0.00166215       0.00023555       0.00031702      -2.85074687
Au      -6.67055746      -0.00092909      -1.83036281      -7.30994328      -0.00506477     -14.07889296      -0.00094574      -0.00003791      -0.00045278      -2.83241510
Au      -6.20866669       2.22854340      -3.56991941      -1.16953801      11.13595456      10.01406360      -0.00086086      -0.00012427       0.00061951      -2.85573244
Au      -6.66984178      -0.00098941       1.82790804      -7.33551636      -0.01770883      14.29730315      -0.00098536       0.00005808       0.00067332      -2.83245158
Au      -6.37326457       2.20739400      -0.00026123      -1.11165804      -1.86669344       0.06901287      -0.00023040      -0.00147312       0.00002472      -2.88396144
Au      -6.40962009      -0.00378002       5.16337853     -17.81078433      -0.03856559     -38.59230987      -0.00038220       0.00005499      -0.00108943      -2.85077596
Au      -6.21019676       2.23276724       3.56791191      -1.19161244      11.29655607     -10.07117503      -0.00064824      -0.00039928      -0.00060589      -2.85573936
Au      -5.79245419       4.37970417      -1.80138976       7.71250684       8.64466077       9.49824595      -0.00089418       0.00004443      -0.00104424      -2.84680676
Au      -5.79553056       4.38106353       1.80222022       7.70865924       8.72502375      -9.44274646      -0.00065834      -0.00038417       0.00106022      -2.84681487
Au      -5.20996368       6.46785472      -0.00071159      38.66553619      17.53954970      -0.04907255       0.00094162       0.00028091      -0.00005677      -2.85073519
Au      -3.57581052      -6.20214465      -2.21640996      10.01946780      -1.14703236     -11.23981790       0.00088334      -0.00097695      -0.00043419      -2.85568786
Au      -1.79548171      -5.78324127      -4.38563840       9.45682777       7.73011498      -8.59637029      -0.00163481      -0.00103816       0.00091140      -2.84677172
Au      -3.57585912      -6.20426393       2.21894505      10.06643327      -1.17760464      11.24829636       0.00065797      -0.00085953       0.00000912      -2.85570717
Au      -1.83373726      -6.67762589      -0.00019155     -14.38888601      -7.20455225       0.01412842      -0.00002462      -0.00105792      -0.00002258      -2.83243442
Au      -1.79905781      -5.78518732       4.38071318       9.49498872       7.77283374       8.61831848      -0.00113792      -0.00097704      -0.00016670      -2.84673858
Au      -4.40892816      -1.78965347      -5.79121703      -8.54695289       9.52150827       7.67897448       0.00062758      -0.00146975      -0.00106465      -2.84685922
Au      -2.23007689      -3.56804615      -6.20237887     -11.21049969      10.09314328      -1.14220886      -0.00046848       0.00096453      -0.00078608      -2.85571957
Au      -4.15464337      -4.15960604      -4.15740499      -1.29267305      -1.20171234      -1.20099788      -0.00039471      -0.00052498      -0.00057591      -2.72897315
Au      -4.10019194      -2.21832673      -1.77884161       2.20039016      -1.76250871       3.92905231      -0.00019508      -0.00006438       0.00093839      -2.68572044
Au      -1.73512471      -4.08302513      -2.28782340       3.81857133       2.41343259      -1.78210829       0.00087703       0.00006101       0.00023416      -2.68570280
Au      -2.18994498      -1.78510194      -4.06810010      -1.74731216       3.84404480       2.35424848       0.00083660       0.00031881      -0.00002741      -2.68567944
Au      -3.72873730      -4.64787341      -0.00499027       8.04427604       0.86081392      -0.02017147       0.00263321       0.00103863       0.00052843      -2.62488127
Au      -4.09707361      -2.20426187       1.78344795       2.32565601      -1.72716752      -3.87116709       0.00034087      -0.00073282      -0.00134149      -2.68570256
Au      -1.72629094      -4.07956380       2.29847239       3.87405273       2.49887676       1.79389324       0.00010363       0.00048986      -0.00149175      -2.68567371
Au      -1.55233061      -1.91208082      -0.00757557       7.57855481      -2.59500245       0.00813540      -0.00158290      -0.00261047       0.00123723      -2.92588139
Au      -4.15397261      -4.15991953       4.15790372      -1.25508299      -1.25411268       1.24951750      -0.00051916      -0.00060505       0.00042987      -2.72895503
Au      -4.40759441      -1.79358496       5.79563733      -8.61676996       9.54217827      -7.64800111       0.00019790      -0.00107688       0.00086950      -2.84681392
Au      -2.23668779      -3.56662675       6.20534399     -11.31572344      10.08136677       1.17788711       0.00027956       0.00055739       0.00076516      -2.85573053
Au      -2.18261734      -1.78412038       4.05779720      -1.68350938       3.86738600      -2.52815969       0.00080651       0.00054934      -0.00001700      -2.68565774
Au      -4.41679233       1.79407145      -5.80817947      -8.63888908      -9.52828322       7.66186693       0.00023908       0.00112517      -0.00087100      -2.84686065
Au      -2.20266661      -0.00139358      -6.38483355       1.97368800       0.02252751      -1.04358185       0.00141171      -0.00006849      -0.00018563      -2.88392472
Au      -4.60873393      -0.02747605      -3.67138690       0.60970034      -0.01088562       8.10149999      -0.00002127       0.00050803       0.00225095      -2.62480664
Au      -4.08069672       2.27652871      -1.73009115       2.35025309       1.70572212       3.95212458       0.00043420      -0.00143183       0.00034044      -2.68566227
Au      -1.99907404      -0.04090036      -1.58147538      -2.54330801       0.06325806       7.67144071      -0.00188752       0.00153338      -0.00110232      -2.92577720
Au      -2.11291119       1.81079690      -4.05044609      -1.73992689      -3.90485079       2.53778313       0.00026581      -0.00086593       0.00052402      -2.68566251
Au      -4.54381480      -0.00280062       0.00557650     -12.81455833       0.02967541       0.07428547       0.00175209       0.00022303      -0.00046632      -2.70735383
Au      -4.07748242       2.26242134       1.73474438       2.36715130       1.72055007      -3.90888578      -0.00045594      -0.00009194      -0.00066373      -2.68565774
Au      -2.04038400      -0.04064114       1.60379057      -2.71300405      -0.05145171      -7.55546708       0.00112873       0.00026488      -0.00049758      -2.92566824
Au      -1.71851614       2.14395624      -0.00736796       7.61746004       2.56793938      -0.10341335       0.00072505      -0.00089453      -0.00008895      -2.92568445
Au      -4.57768758      -0.02745490       3.64545711       0.84120604      -0.02470599      -8.24968888      -0.00258048       0.00031162      -0.00028907      -2.62486219
Au      -4.41552688       1.79793046       5.81259240      -8.63541731      -9.56550649      -7.68589613       0.00044167       0.00107227       0.00052240      -2.84684849
Au      -2.20232279      -0.00140068       6.38540723       1.98887253       0.01648533       1.04914045       0.00121565      -0.00017963       0.00006466      -2.88382745
Au      -2.10550262       1.80980070       4.03994836      -1.75275800      -3.94551003      -2.46547849      -0.00054652      -0.00090927       0.00075675      -2.68562293
Au      -2.25334263       3.55699766      -6.21107794     -11.21594471     -10.05368744      -1.14882090       0.00032706      -0.00047845      -0.00088162      -2.85571456
Au      -4.15605293       4.16246079      -4.15392788      -1.20287372       1.19178469      -1.23460111      -0.00051600       0.00058187      -0.00035063      -2.72898459
Au      -3.56728053       6.21840567      -2.25339184      10.04018289       1.21450172     -11.23972980       0.00035821       0.00070039       0.00032790      -2.85570097
Au      -1.72863406       4.02595348      -2.24787427       3.87727289      -2.44191406      -1.78623629       0.00081250      -0.00012033       0.00007946      -2.68566632
Au      -1.81560318       5.80659183      -4.37936184       9.48724130      -7.73465112      -8.74387154      -0.00094876       0.00088666       0.00031665      -2.84676313
Au      -3.58950164       4.41846452      -0.00500949       8.13737216      -0.81926694      -0.04191070       0.00043639       0.00266466       0.00031666      -2.62489557
Au      -3.56736858       6.22053562       2.25590841      10.06824071       1.15747336      11.28888566       0.00065982       0.00047226      -0.00037849      -2.85570979
Au      -1.71975929       4.02238497       2.25851648       3.93133755      -2.40476476       1.81761312       0.00022068       0.00092888      -0.00048606      -2.68562031
Au      -1.82262003       6.68878077      -0.00019408     -14.27988980       7.35114609       0.01044110      -0.00038279       0.00095530       0.00008056      -2.83237767
Au      -4.15544989       4.16272759       4.15441393      -1.24105250       1.19521617       1.23493302      -0.00040965       0.00064062       0.00050630      -2.72898746
Au      -2.25987624       3.55565779       6.21405644     -11.34182631     -10.06081122       1.14353659       0.00043780      -0.00054390       0.00061397      -2.85568714
Au      -1.81912224       5.80848726       4.37454160       9.49097283      -7.77801419       8.67816267      -0.00095455       0.00063248      -0.00033597      -2.84673929
Au      -0.00744836      -5.19169737      -6.44395409      -0.00925899      38.50264337     -17.59232366       0.00007641      -0.00044739      -0.00237589      -2.85068512
Au      -0.00179483      -6.37849277      -2.20509960      -0.07467381      -1.03156434       1.83455550      -0.00000544      -0.00014695       0.00139633      -2.88388729
Au       1.80379182      -5.81426161      -4.40050879      -9.44523307       7.65949654      -8.61447520       0.00145073      -0.00116279       0.00041407      -2.84681845
Au      -0.00182656      -6.37746175       2.20551067      -0.07199234      -1.02938839      -1.82946029       0.00014149      -0.00025403      -0.00130796      -2.88387322
Au       1.81374518      -6.67186904      -0.00020083      14.06421788      -7.23817203      -0.02094456       0.00037753      -0.00106927       0.00002566      -2.83239031
Au      -0.00744222      -5.20572481       6.46223631      -0.03463229      38.64269560      17.84457690      -0.00011156       0.00061191       0.00080556      -2.85073900
Au       1.80733876      -5.81621306       4.39564425      -9.41713894       7.74313995       8.56738321       0.00135958      -0.00098255      -0.00059250      -2.84678817
Au      -0.00233688      -1.82513094      -6.68085788       0.04472627     -14.24527511      -7.22018282       0.00000574      -0.00019507      -0.00107794      -2.83240604
Au       2.25548147      -3.56794501      -6.22417843      11.27791904       9.97022296      -1.25108527       0.00009547       0.00053959      -0.00108597      -2.85570145
Au      -0.05112084      -3.61201759      -4.48303055      -0.06545235       8.13247143       0.92199170       0.00019219       0.00339433       0.00176181      -2.62483168
Au      -0.07564060      -1.67218312      -2.10245726       0.09668780       7.50717074      -2.69117778       0.00141623      -0.00206939      -0.00330319      -2.92592955
Au       1.78335903      -4.04981978      -2.14610053      -3.82454662       2.49235054      -1.60486511      -0.00098195       0.00136450       0.00069062      -2.68569684
Au       2.29819693      -1.69394127      -4.03243692       1.78077726       3.89650732       2.47688978      -0.00175312       0.00024117       0.00113793      -2.68566751
Au       0.05805463      -4.53135389      -0.00046086      -0.00225798     -12.75790888      -0.06669305      -0.00005271       0.00225043      -0.00018965      -2.70727277
Au      -0.07533457      -1.70284989       2.14488113      -0.09076681       7.39630513       2.91377144      -0.00081703       0.00020522       0.00054511      -2.92571974
Au       1.77443094      -4.04624396       2.15668628      -3.83351922       2.34754766       1.69342464       0.00013954      -0.00045919      -0.00080581      -2.68568087
Au       1.77782903      -2.32872818      -0.00729095      -7.33166280      -2.95418833      -0.20254200       0.00136431      -0.00173325      -0.00098281      -2.92585588
Au      -0.05118837      -3.58667229       4.44091779      -0.05288264       8.31129119      -1.15174636      -0.00004137       0.00119923       0.00191466      -2.62489629
Au      -0.00234072      -1.82290020       6.68267340       0.01088489     -14.43100939       7.26469427      -0.00007090      -0.00045053       0.00093344      -2.83242178
Au       2.26211277      -3.56658633       6.22719293      11.36065864      10.02121950       1.20725581      -0.00031862       0.00067752       0.00072105      -2.85573578
Au       2.29081483      -1.69289914       4.02200851       1.77235273       3.85512941      -2.40235174      -0.00021790       0.00045881       0.00072489      -2.68566227
Au      -0.00228883       1.81308950      -6.67775589       0.04800429      14.38162175      -7.20823971       0.00000583       0.00027167      -0.00106348      -2.83241606
Au       2.20635262      -0.00145447      -6.37415696      -1.88733241       0.06798599      -1.04215343      -0.00145186       0.00015464      -0.00028679      -2.88382173
Au      -0.00539947       0.03089838      -4.52015570      -0.01270925       0.02627404     -12.75138053       0.00001361      -0.00050282       0.00219229      -2.70728445
Au      -0.07565579       1.79374290      -2.32818792      -0.14933917      -7.59162826      -2.61716653      -0.00099355       0.00005947       0.00008903      -2.92578983
Au       2.43106056      -0.04086890      -1.89234756       2.95947109      -0.17527886       7.37927096       0.00060715      -0.00097067      -0.00015740      -2.92575932
Au       2.22129311       1.71958676      -4.01489636       1.86672013      -3.86923700       2.34709328       0.00015745      -0.00042077      -0.00079329      -2.68567419
Au      -0.41626978      -0.22474395      -0.04088531      -0.22562679      -0.07362130      -0.20840134       0.00105368       0.00282165       0.00248817      -3.24068689
Au      -0.07562605       1.82419750       2.37043431       0.05416662      -7.49086002       2.76433995       0.00093093      -0.00142943      -0.00250786      -2.92567396
Au       2.47195920      -0.04086019       1.91456673       3.01843944       0.08589605      -7.38916579      -0.00085434       0.00180921      -0.00044893      -2.92577887
Au       1.94595506       2.56330495      -0.00738141      -7.36407914       2.89431872       0.10030284      -0.00100018      -0.00144835       0.00195857      -2.92566586
Au      -0.00538815       0.03091116       4.51489760      -0.02771390      -0.03746120      12.76453876      -0.00030473      -0.00046724      -0.00185980      -2.70716572
Au      -0.00222695       1.81081081       6.67962334       0.00167231      14.45345477       7.19965289       0.00056290       0.00078860       0.00108570      -2.83263087
Au       2.20604559      -0.00145968       6.37473437      -1.92157819      -0.03123184       1.05237123      -0.00132414      -0.00021766       0.00029149      -2.88396311
Au       2.21387218       1.71855836       4.00457189       1.76648416      -3.89573658      -2.44510578      -0.00037467      -0.00142527      -0.00271319      -2.68555093
Au      -0.00750032       5.25016882      -6.52885920       0.00210263     -38.61818637     -17.62587240      -0.00010510      -0.00051422      -0.00089592      -2.85071492
Au       2.27887445       3.55689800      -6.23296747      11.29977421     -10.05873508      -1.17868367      -0.00011827      -0.00071249      -0.00061394      -2.85569739
Au      -0.05138037       3.46977888      -4.31533619      -0.05948691      -8.12043305       0.87231655      -0.00002689      -0.00099004      -0.00124849      -2.62491035
Au      -0.00179260       6.38225778      -2.20294453      -0.04831773       1.07222296       1.81023794       0.00036651       0.00012697       0.00144138      -2.88393569
Au       1.77735841       3.99208353      -2.10479522      -3.87693336      -2.28987407      -1.66255269      -0.00058970       0.00100106      -0.00058641      -2.68568015
Au       1.82397738       5.83785384      -4.39444733      -9.41327238      -7.69380461      -8.64770627       0.00107673       0.00066783       0.00070600      -2.84676623
Au       0.05851828       4.50369517      -0.00054404      -0.01992405      12.73900404       0.04126865      -0.00018822      -0.00169768      -0.00012307      -2.70724440
Au      -0.00179906       6.38121091       2.20336720      -0.05986170       1.06937007      -1.82562485       0.00042993       0.00005522      -0.00111522      -2.88401866
Au       1.76842349       3.98872923       2.11553778      -3.90453223      -2.46042445       1.61882068       0.00353031      -0.00015922       0.00118972      -2.68611789
Au       1.80215139       6.68327146      -0.00018164      13.97559614       7.35092484       0.00308375       0.00042794       0.00059250      -0.00022582      -2.83234000
Au      -0.05142832       3.44454444       4.27341619      -0.00445755      -8.22914069      -1.06794223      -0.00005749       0.00030568       0.00309718      -2.62511468
Au      -0.00749502       5.26395525       6.54687619       0.02624562     -38.76424312      17.76413089      -0.00035382      -0.00130461       0.00001493      -2.85069633
Au       2.28548027       3.55561171       6.23592223      11.30885952     -10.04305019       1.22152328      -0.01011206      -0.00088010       0.01141982      -2.85554171
Au       1.82753951       5.83971632       4.38954885      -9.45320826      -7.69896009       8.69638143       0.00148204       0.00209741      -0.00198608      -2.84679508
Au       3.55585437      -6.21753544      -2.26003279     -10.02597265      -1.27761625     -11.20734264      -0.00058561      -0.00107217      -0.00031380      -2.85570955
Au       3.55594483      -6.21971091       2.26254294     -10.09092584      -1.22675021      11.22337385      -0.00103101      -0.00058503       0.00031097      -2.85574245
Au       5.24491247      -6.52346136      -0.00073711     -38.34949097     -17.70361339       0.03104643       0.00016854      -0.00184115      -0.00004101      -2.85071349
Au       4.35962489      -1.82507191      -5.81017028       8.66899348       9.42987432       7.66277973      -0.00000146      -0.00107916      -0.00122609      -2.84668922
Au       4.15979551      -4.15276202      -4.16109003       1.27934152      -1.27997969      -1.25563878       0.00047629      -0.00065871      -0.00035977      -2.72897387
Au       3.99470266      -2.14237739      -1.76843515      -2.56158181      -1.67414502       3.88204163      -0.00098454       0.00038722       0.00122435      -2.68561339
Au       5.82675395      -4.39391197      -1.82080549      -7.61796009      -8.64629115       9.55717349       0.00108126       0.00032016      -0.00125390      -2.84679914
Au       6.22757269      -2.28249312      -3.55565213       1.22107974     -11.34206600      10.02951546       0.00117575       0.00039221       0.00029726      -2.85569644
Au       3.46683616      -4.33692824      -0.00502343      -8.27735544       1.00198846      -0.00416338      -0.00248158       0.00091877       0.00035584      -2.62482619
Au       3.99133214      -2.12828813       1.77317886      -2.35577597      -1.75506700      -3.84746996       0.00059409      -0.00099811      -0.00125986      -2.68566036
Au       5.82983814      -4.39536498       1.82159860      -7.68343949      -8.60581447      -9.52515809       0.00068664       0.00091527       0.00136829      -2.84680247
Au       6.38576707      -2.20125981      -0.00024580       1.03325979       2.01098616       0.01148245       0.00003644       0.00129284       0.00029909      -2.88382173
Au       4.15909744      -4.15316284       4.16164735       1.25570943      -1.31161678       1.27775104       0.00070623      -0.00054731       0.00024918      -2.72898245
Au       4.35846339      -1.82891368       5.81446134       8.68785475       9.48124409      -7.67531372      -0.00065508      -0.00111958       0.00076788      -2.84665632
Au       6.22909898      -2.28678970       3.55376605       1.19414726     -11.36180365     -10.04098463       0.00080616       0.00021078      -0.00058271      -2.85570812
Au       4.36743547       1.82952323      -5.82717027       8.62071812      -9.43628314       7.76252195      -0.00069663       0.00125393      -0.00069560      -2.84668469
Au       6.58010179      -0.00386659      -5.29159183      17.88538991       0.02852351      38.65179014       0.00081100      -0.00006703       0.00019858      -2.85066628
Au       4.18016629      -0.02774063      -3.41279995      -1.25932582       0.01669069       8.22905756       0.00165711       0.00042137       0.00122059      -2.62489271
Au       3.97459788       2.20141350      -1.71880091      -2.36459221       1.74168129       3.84820931       0.00101467      -0.00059703       0.00005834      -2.68558717
Au       6.68988457      -0.00099486      -1.80816305       7.16546539       0.00977721     -14.53970845       0.00091411       0.00024576      -0.00007799      -2.83249378
Au       6.23903901       2.29673734      -3.55569812       1.16999418      11.36798941      10.11854277       0.00054190      -0.00026061       0.00093988      -2.85567069
Au       4.49104246      -0.00273963       0.00571689      12.75703447      -0.03112379       0.00707447      -0.00201959      -0.00057671      -0.00056740      -2.70706058
Au       3.97142137       2.18738260       1.72361100      -2.53941831       1.69222114      -3.89470007      -0.00014286       0.00377117       0.00316353      -2.68618393
Au       6.68926443      -0.00100226       1.80615263       7.15682119       0.01352124      14.50071073       0.00068717       0.00014124       0.00028252      -2.83248115
Au       6.37951713       2.20371326      -0.00016348       1.01838519      -1.96024918      -0.02861118      -0.00006753      -0.00135758       0.00027678      -2.88385844
Au       4.14939997      -0.02775437       3.38698966      -1.15942486       0.01571427      -8.28426241       0.00221941       0.00077311      -0.00093090      -2.62515712
Au       4.36622428       1.83332073       5.83142262       8.75582567      -9.50574719      -7.69748329       0.00340400      -0.00693263       0.00631381      -2.84651566
Au       6.59536725      -0.00383761       5.30231943      17.89647749       0.04660261     -38.73414732       0.00017549       0.00007233      -0.00041614      -2.85062742
Au       6.24053898       2.30093776       3.55370863       1.20822370      11.36365380     -10.07919884      -0.00299064       0.00436150      -0.00140846      -2.85563374
Au       4.16132318       4.15555472      -4.15751003       1.26013387       1.32772427      -1.18506688       0.00049205       0.00046421      -0.00071328      -2.72891831
Au       3.54711651       6.23403173      -2.29767208     -10.04078147       1.21349901     -11.20798056      -0.00067232       0.00046978       0.00028552      -2.85561395
Au       5.83619455       4.36748960      -1.83989357      -7.69687477       8.63970205       9.46603071       0.00066209      -0.00031248      -0.00114938      -2.84683561
Au       3.32439610       4.10260170      -0.00507978      -8.24288837      -0.85431340       0.00377005       0.00035933       0.00278911       0.00234496      -2.62524700
Au       3.54714336       6.23612892       2.30027331     -10.01833931       1.21480188      11.21162577       0.00276071      -0.01149653       0.00931220      -2.85579848
Au       5.83929202       4.36893219       1.84073898      -7.66333453       8.72058492      -9.50892153      -0.01046914      -0.00282237       0.01471508      -2.84697747
Au       5.31874668       6.62576475      -0.00076097     -38.20809102      17.69530021      -0.00421276      -0.00154801       0.00020520       0.00056897      -2.85069513
Au       4.16068150       4.15592123       4.15805003       1.33974577       1.26302862       1.20305007       0.01423692       0.01426895      -0.04204863      -2.72824073
