147
Properties=species:S:1:pos:R:3:masses:R:1:forces:R:3:energies:R:1 energy=-413.33917236328125 label=0 n_visit=1 free_energy=-413.3391418457031 pbc="F F F"
Au      -5.96609524      -5.96784564       0.00004058       1.00000000      -0.00015402       0.00049663      -0.00002499      -2.84212160
Au      -6.09265749      -4.04505145      -2.07898457       1.00000000      -0.00033605       0.00026571      -0.00023602      -2.85246277
Au      -6.09263994      -2.07923460      -4.04461348       1.00000000      -0.00032014      -0.00019896       0.00016745      -2.85248685
Au      -6.09281662      -4.04480583       2.07879236       1.00000000      -0.00019203       0.00016607       0.00034826      -2.85242367
Au      -6.26334438      -2.02300018      -0.00033908       1.00000000      -0.00020674      -0.00003962       0.00014449      -2.89560866
Au      -6.09264418      -2.07908642       4.04425218       1.00000000      -0.00029767      -0.00032200      -0.00004859      -2.85245395
Au      -5.96602527       0.00002043      -5.96712707       1.00000000      -0.00014095       0.00000834       0.00029915      -2.84209871
Au      -6.26335320      -0.00032300      -2.02285573       1.00000000      -0.00018581       0.00011632      -0.00005551      -2.89559317
Au      -6.09281856       2.07903548      -4.04439496       1.00000000      -0.00016656       0.00027964       0.00004939      -2.85244989
Au      -6.26323932      -0.00039721       2.02205192       1.00000000      -0.00026365       0.00015418       0.00037784      -2.89558005
Au      -6.26325778       2.02224908      -0.00042755       1.00000000      -0.00028212       0.00032902       0.00017816      -2.89558291
Au      -5.96575813      -0.00009554       5.96676058       1.00000000      -0.00028877       0.00004040      -0.00006655      -2.84214735
Au      -6.09235923       2.07856286       4.04385528       1.00000000      -0.00042646       0.00037993       0.00017071      -2.85248899
Au      -6.09269875       4.04470532      -2.07885838       1.00000000      -0.00030061      -0.00013318      -0.00032895      -2.85243106
Au      -6.09239571       4.04428568       2.07831946       1.00000000      -0.00043235       0.00008914       0.00043571      -2.85246587
Au      -5.96588058       5.96748410      -0.00008818       1.00000000      -0.00021078      -0.00031960       0.00002357      -2.84218001
Au      -4.04397353      -6.09465125      -2.07900477       1.00000000      -0.00005199       0.00040641      -0.00019480      -2.85248280
Au      -2.07872624      -6.09453039      -4.04459779       1.00000000      -0.00023045       0.00025650       0.00013676      -2.85240936
Au      -4.04435897      -6.09447863       2.07946419       1.00000000       0.00014867       0.00025687      -0.00004369      -2.85246539
Au      -2.02263541      -6.26513824       0.00037833       1.00000000      -0.00018234       0.00017424      -0.00013295      -2.89549589
Au      -2.07907467      -6.09454170       4.04507893       1.00000000      -0.00000958       0.00027123      -0.00034240      -2.85241294
Au      -4.04388836      -2.07916239      -6.09397405       1.00000000      -0.00002344      -0.00019742       0.00023291      -2.85249591
Au      -2.07865462      -4.04491942      -6.09390420       1.00000000      -0.00026262       0.00027234       0.00009840      -2.85240006
Au      -4.27218140      -4.27334484      -4.27294973       1.00000000      -0.00035980       0.00002393      -0.00009380      -2.72371912
Au      -4.10076119      -2.02950405      -2.02924374       1.00000000      -0.00022125       0.00015145       0.00014891      -2.69331312
Au      -2.02903533      -4.10218950      -2.02919563       1.00000000       0.00015573       0.00007737       0.00013701      -2.69319677
Au      -2.02893071      -2.02935595      -4.10169313       1.00000000       0.00011144       0.00011015      -0.00003084      -2.69323587
Au      -4.04395430      -4.04529092       0.00004275       1.00000000      -0.00019146       0.00025050      -0.00004172      -2.62998915
Au      -4.10073772      -2.02944253       2.02888864       1.00000000      -0.00022619       0.00011463      -0.00002270      -2.69338703
Au      -2.02915890      -4.10226560       2.02959849       1.00000000       0.00019905       0.00022109      -0.00030701      -2.69319224
Au      -2.04418943      -2.04504096       0.00001532       1.00000000       0.00002375       0.00014434       0.00000655      -2.92775559
Au      -4.27270615      -4.27352562       4.27336853       1.00000000      -0.00008857       0.00010685      -0.00016260      -2.72359705
Au      -4.04373264      -2.07922974       6.09372234       1.00000000      -0.00012680      -0.00023106      -0.00001506      -2.85247421
Au      -2.07855954      -4.04499345       6.09397390       1.00000000      -0.00031661       0.00018776      -0.00013844      -2.85239220
Au      -2.02863718      -2.02962999       4.10158420       1.00000000      -0.00000949       0.00022461       0.00005687      -2.69330478
Au      -4.04426643       2.07958434      -6.09382729       1.00000000       0.00014390      -0.00005798       0.00009964      -2.85247684
Au      -2.02262465       0.00035971      -6.26455144       1.00000000      -0.00018244      -0.00013276       0.00012277      -2.89550972
Au      -4.04386362       0.00003531      -4.04474373       1.00000000      -0.00013916      -0.00001528       0.00016264      -2.63000369
Au      -4.10075709       2.02918554      -2.02921579       1.00000000      -0.00021329      -0.00006714       0.00010711      -2.69336438
Au      -2.04415470       0.00002919      -2.04469550       1.00000000       0.00000741      -0.00000262       0.00011566      -2.92775512
Au      -2.02904477       2.02974173      -4.10180645       1.00000000       0.00009807      -0.00028775       0.00017291      -2.69321775
Au      -4.18158317      -0.00030859      -0.00035112       1.00000000      -0.00013043       0.00012397       0.00016074      -2.76547766
Au      -4.10048530       2.02885051       2.02856782       1.00000000      -0.00029684       0.00009819       0.00018855      -2.69334412
Au      -2.04387020      -0.00023766       2.04436010       1.00000000      -0.00008205       0.00015311       0.00006872      -2.92778921
Au      -2.04392408       2.04474877      -0.00025918       1.00000000      -0.00002274      -0.00005302       0.00015187      -2.92776346
Au      -4.04354166      -0.00030550       4.04428893       1.00000000      -0.00022219       0.00020424       0.00008128      -2.63000035
Au      -4.04334851       2.07870339       6.09343963       1.00000000      -0.00032523       0.00031425       0.00010095      -2.85251164
Au      -2.02181965      -0.00039395       6.26429557       1.00000000      -0.00048793       0.00014804       0.00004074      -2.89553905
Au      -2.02832604       2.02904264       4.10133021       1.00000000      -0.00023588      -0.00001711       0.00014439      -2.69325995
Au      -2.07900145       4.04537248      -6.09393907       1.00000000      -0.00000651      -0.00040619       0.00012115      -2.85240483
Au      -4.27261501       4.27366627      -4.27305069       1.00000000      -0.00011891      -0.00021969      -0.00006132      -2.72362781
Au      -4.04383301       6.09443419      -2.07906648       1.00000000      -0.00013589      -0.00024120      -0.00025623      -2.85246944
Au      -2.02876785       4.10209303      -2.02949546       1.00000000       0.00003444       0.00002792       0.00022374      -2.69325280
Au      -2.07862389       6.09462428      -4.04468485       1.00000000      -0.00028419      -0.00036608       0.00006627      -2.85241246
Au      -4.04365595       4.04485212      -0.00031181       1.00000000      -0.00034010       0.00010942       0.00018137      -2.62997007
Au      -4.04344987       6.09412238       2.07856003       1.00000000      -0.00032210      -0.00011007       0.00033507      -2.85250473
Au      -2.02845710       4.10181083       2.02889705       1.00000000      -0.00016147       0.00014926       0.00001049      -2.69321680
Au      -2.02186020       6.26492050      -0.00039025       1.00000000      -0.00045912      -0.00002929       0.00014081      -2.89551425
Au      -4.27126633       4.27231567       4.27192541       1.00000000      -0.00054707       0.00020482       0.00031814      -2.72382689
Au      -2.07809644       4.04446536       6.09356503       1.00000000      -0.00043650       0.00006080       0.00008251      -2.85243344
Au      -2.07817091       6.09417669       4.04417917       1.00000000      -0.00039421      -0.00011613       0.00012648      -2.85244918
Au      -0.00014191      -5.96763394      -5.96704501       1.00000000       0.00009601       0.00029374       0.00008255      -2.84219909
Au      -0.00035254      -6.26484017      -2.02217492       1.00000000       0.00009024      -0.00011312      -0.00031139      -2.89553428
Au       2.07817123      -6.09395692      -4.04415426       1.00000000       0.00045894      -0.00012640      -0.00013287      -2.85245585
Au      -0.00039284      -6.26509310       2.02288659       1.00000000       0.00015367       0.00013066       0.00013834      -2.89552069
Au       2.02186265      -6.26471531       0.00032671       1.00000000       0.00042555      -0.00017913      -0.00006771      -2.89556026
Au      -0.00006953      -5.96800660       5.96729239       1.00000000       0.00003013       0.00058554      -0.00027463      -2.84215927
Au       2.07853884      -6.09456639       4.04463117       1.00000000       0.00036833       0.00029470      -0.00013618      -2.85244441
Au      -0.00038006      -2.02232562      -6.26427052       1.00000000       0.00010427      -0.00025542      -0.00014583      -2.89555907
Au       2.07807323      -4.04443997      -6.09334283       1.00000000       0.00048372      -0.00006372      -0.00030682      -2.85243988
Au      -0.00037181      -4.04500230      -4.04456539       1.00000000       0.00021758       0.00004183      -0.00007019      -2.62991762
Au      -0.00040080      -2.04472635      -2.04440280       1.00000000       0.00036372      -0.00012401      -0.00014280      -2.92773795
Au       2.02837122      -4.10155247      -2.02882740       1.00000000       0.00013758      -0.00023281       0.00001092      -2.69338250
Au       2.02823226      -2.02896428      -4.10106916       1.00000000       0.00019892      -0.00001125      -0.00028241      -2.69342113
Au      -0.00042865      -4.18296737       0.00035749       1.00000000       0.00021819      -0.00008752      -0.00020159      -2.76543140
Au      -0.00008129      -2.04506410       2.04470397       1.00000000      -0.00000893       0.00018276      -0.00007267      -2.92772031
Au       2.02869140      -4.10199236       2.02940518       1.00000000       0.00005001      -0.00011608      -0.00021603      -2.69328332
Au       2.04387252      -2.04457010       0.00032176       1.00000000       0.00021129      -0.00030031      -0.00035414      -2.92773604
Au      -0.00008585      -4.04543061       4.04486609       1.00000000       0.00005293       0.00021003       0.00006101      -2.62994456
Au       0.00032512      -2.02301900       6.26436911       1.00000000      -0.00010538      -0.00006464       0.00001093      -2.89558530
Au       2.07868211      -4.04517012       6.09367372       1.00000000       0.00032284       0.00028855       0.00012417      -2.85244536
Au       2.02893921      -2.02962054       4.10142148       1.00000000      -0.00008135       0.00018126       0.00024670      -2.69331717
Au      -0.00040049       2.02303505      -6.26451817       1.00000000       0.00017987       0.00006411       0.00007375      -2.89554906
Au       2.02181486       0.00033585      -6.26411323       1.00000000       0.00043996      -0.00005902      -0.00021518      -2.89558291
Au      -0.00045378       0.00035163      -4.18246632       1.00000000       0.00024148      -0.00019768      -0.00009727      -2.76541877
Au      -0.00009206       2.04503645      -2.04475216       1.00000000      -0.00002737      -0.00017061       0.00021501      -2.92769027
Au       2.04382048       0.00031460      -2.04419710       1.00000000       0.00023537      -0.00036254      -0.00034571      -2.92773342
Au       2.02855707       2.02954542      -4.10148545       1.00000000       0.00015680      -0.00022315      -0.00024808      -2.69333148
Au      -0.00007375       0.00002442       0.00001402       1.00000000      -0.00004802       0.00003543       0.00003974      -3.10822678
Au       0.00019286       2.04477864       2.04444114       1.00000000      -0.00012558      -0.00013925      -0.00005286      -2.92772031
Au       2.04420234       0.00003020       2.04452097       1.00000000      -0.00010744       0.00003370       0.00011268      -2.92771649
Au       2.04423622       2.04488557       0.00002671       1.00000000      -0.00013960       0.00001681       0.00004579      -2.92769146
Au       0.00028564      -0.00030106       4.18238767       1.00000000      -0.00014115       0.00012033       0.00009508      -2.76546192
Au       0.00040357       2.02227414       6.26428988       1.00000000      -0.00013929       0.00033526       0.00009762      -2.89556122
Au       2.02257440      -0.00031432       6.26424710       1.00000000       0.00020031       0.00011332       0.00007356      -2.89559531
Au       2.02891130       2.02931827       4.10141725       1.00000000       0.00000722      -0.00015469       0.00024061      -2.69337749
Au      -0.00007685       5.96785315      -5.96745333       1.00000000       0.00004502      -0.00053926       0.00048125      -2.84216619
Au       2.07846751       4.04493410      -6.09392565       1.00000000       0.00039263      -0.00022536       0.00011869      -2.85243011
Au      -0.00008931       4.04528863      -4.04498907       1.00000000       0.00003353       0.00011998      -0.00003331      -2.62996435
Au       0.00032174       6.26497156      -2.02287685       1.00000000      -0.00011423      -0.00006102      -0.00010622      -2.89556170
Au       2.02905299       4.10189639      -2.02947907       1.00000000      -0.00010553       0.00024600       0.00022044      -2.69327784
Au       2.07875508       6.09429867      -4.04486031       1.00000000       0.00028062      -0.00007536       0.00016521      -2.85246086
Au       0.00025711       4.18290359      -0.00031660       1.00000000      -0.00010445       0.00012896       0.00011946      -2.76546478
Au       0.00037709       6.26487159       2.02212514       1.00000000      -0.00011659       0.00002372       0.00040319      -2.89554119
Au       2.02900213       4.10190430       2.02915483       1.00000000      -0.00003594       0.00020993      -0.00013441      -2.69334674
Au       2.02258371       6.26485427      -0.00032483       1.00000000       0.00021586      -0.00000412       0.00013502      -2.89557981
Au       0.00026169       4.04498828       4.04456730       1.00000000      -0.00016465       0.00021952       0.00027324      -2.62992859
Au       0.00004051       5.96763118       5.96710105       1.00000000       0.00000913      -0.00041891      -0.00024564      -2.84222054
Au       2.07854241       4.04482144       6.09373646       1.00000000       0.00041877      -0.00012728       0.00006599      -2.85241723
Au       2.07858978       6.09434850       4.04451523       1.00000000       0.00040847      -0.00011616      -0.00002462      -2.85242939
Au       4.04337946      -6.09386566      -2.07862885       1.00000000       0.00039483      -0.00013511      -0.00031982      -2.85250139
Au       4.04376520      -6.09429599       2.07908602       1.00000000       0.00013244       0.00013943       0.00021745      -2.85246706
Au       5.96571113      -5.96743586       0.00009851       1.00000000       0.00047796       0.00020372      -0.00007626      -2.84216523
Au       4.04325196      -2.07875700      -6.09319366       1.00000000       0.00044147      -0.00028614      -0.00032108      -2.85251617
Au       4.27183455      -4.27286644      -4.27249566       1.00000000       0.00026215       0.00004701      -0.00003595      -2.72366309
Au       4.10054982      -2.02873503      -2.02846042       1.00000000       0.00014836      -0.00015347      -0.00017014      -2.69340897
Au       6.09233181      -4.04433517      -2.07843510       1.00000000       0.00051278      -0.00004113      -0.00034544      -2.85244536
Au       6.09229627      -2.07867721      -4.04389882       1.00000000       0.00050004      -0.00029496      -0.00015280      -2.85247421
Au       4.04368804      -4.04466913       0.00031047       1.00000000       0.00015468      -0.00003298      -0.00018382      -2.63004708
Au       4.10099525      -2.02905625       2.02907762       1.00000000       0.00005984      -0.00009659      -0.00008050      -2.69330812
Au       6.09273722      -4.04475356       2.07893341       1.00000000       0.00025533       0.00027163       0.00022709      -2.85241652
Au       6.26360658      -2.02233996       0.00036113       1.00000000      -0.00002182      -0.00018705      -0.00008529      -2.89557171
Au       4.27249680      -4.27354676       4.27304681       1.00000000       0.00019947       0.00015079      -0.00000909      -2.72363782
Au       4.04400299      -2.07934971       6.09355637       1.00000000       0.00006562      -0.00017183       0.00012716      -2.85251236
Au       6.09290168      -2.07906700       4.04443686       1.00000000       0.00009398      -0.00023539      -0.00018955      -2.85245609
Au       4.04365891       2.07923732      -6.09359752       1.00000000       0.00012991       0.00019548      -0.00001722      -2.85247421
Au       5.96560843       0.00009929      -5.96669875       1.00000000       0.00046104      -0.00005641      -0.00000005      -2.84213996
Au       4.04356682       0.00030361      -4.04409357       1.00000000       0.00013750      -0.00015884      -0.00016872      -2.63009834
Au       4.10098262       2.02932336      -2.02876732       1.00000000       0.00007215      -0.00008851      -0.00013815      -2.69332170
Au       6.26359012       0.00034924      -2.02215067       1.00000000      -0.00002552      -0.00006714      -0.00021632      -2.89557433
Au       6.09268568       2.07917794      -4.04430584       1.00000000       0.00023274       0.00017378       0.00013816      -2.85243344
Au       4.18205081       0.00035176       0.00037788       1.00000000      -0.00012687      -0.00018532      -0.00021101      -2.76522064
Au       4.10111962       2.02945454       2.02919775       1.00000000      -0.00015510      -0.00009753      -0.00007083      -2.69330597
Au       6.26385882       0.00037637       2.02291606       1.00000000      -0.00025719      -0.00012639       0.00001068      -2.89554501
Au       6.26385546       2.02307981       0.00039137       1.00000000      -0.00023922      -0.00002160      -0.00013987      -2.89556313
Au       4.04405380       0.00004308       4.04444401       1.00000000      -0.00008741       0.00002593       0.00010825      -2.63008451
Au       4.04377781       2.07916678       6.09375019       1.00000000       0.00019705       0.00023810      -0.00006544      -2.85247564
Au       5.96602376       0.00003237       5.96700617       1.00000000       0.00014342       0.00001033      -0.00021382      -2.84209061
Au       6.09274851       2.07952718       4.04483274       1.00000000       0.00019598      -0.00004761      -0.00034833      -2.85243797
Au       4.27254245       4.27349986      -4.27320594       1.00000000       0.00017544      -0.00018176       0.00005531      -2.72361159
Au       4.04409891       6.09422574      -2.07919729       1.00000000       0.00007542      -0.00008171      -0.00015213      -2.85250139
Au       6.09290545       4.04486211      -2.07882420       1.00000000       0.00011627      -0.00026454      -0.00025233      -2.85242844
Au       4.04414014       4.04498172       0.00005129       1.00000000       0.00003907       0.00015189       0.00001162      -2.63008928
Au       4.04385221       6.09441495       2.07902439       1.00000000       0.00021384      -0.00025013       0.00023132      -2.85247207
Au       6.09276906       4.04524993       2.07931553       1.00000000       0.00022423      -0.00043553      -0.00004349      -2.85241914
Au       5.96612268       5.96769571       0.00005974       1.00000000       0.00007037      -0.00045374      -0.00003290      -2.84211969
Au       4.27260899       4.27391809       4.27353341       1.00000000       0.00017333      -0.00038943      -0.00025100      -2.72353339
