147
Properties=species:S:1:pos:R:3:momenta:R:3:forces:R:3:energies:R:1 barriertype=s energy=-412.0444030761719 free_energy=-412.0444030761719 pbc="F F F"
Au      -5.19789874      -6.45292133      -0.00028161      38.56629766     -17.53624864       0.02415635      -0.00054788      -0.00189977       0.00019212      -2.85068154
Au      -5.80195713      -4.39369535      -1.80170583       7.70810205      -8.67544588       9.43070647      -0.00109882       0.00090256      -0.00141490      -2.84675908
Au      -6.21180425      -2.24346896      -3.56420510      -1.21297328     -11.18717870       9.99913324      -0.00092409      -0.00037809       0.00090301      -2.85571170
Au      -5.80299532      -4.39403732       1.80199487       7.72915915      -8.77546984      -9.42413675      -0.00091942       0.00056460       0.00115598      -2.84675670
Au      -6.37967295      -2.20436954      -0.00016932      -1.08868972       1.82608322       0.04512466      -0.00012393       0.00139650      -0.00012544      -2.88391399
Au      -6.21230281      -2.24489522       3.56358447      -1.26472357     -11.23332996     -10.08202147      -0.00086927       0.00032176      -0.00046192      -2.85571265
Au      -6.46192186      -0.00122153      -5.20159897     -17.55075791      -0.01249714      38.30585199      -0.00166215       0.00023555       0.00031702      -2.85074687
Au      -6.67717173      -0.00020494      -1.82242027      -7.30994328      -0.00506477     -14.07889296      -0.00094574      -0.00003791      -0.00045278      -2.83241510
Au      -6.21545570       2.24836466      -3.56416153      -1.16953801      11.13595456      10.01406360      -0.00086086      -0.00012427       0.00061951      -2.85573244
Au      -6.67680719      -0.00028060       1.82143094      -7.33551636      -0.01770883      14.29730315      -0.00098536       0.00005808       0.00067332      -2.83245158
Au      -6.37747439       2.20534275      -0.00012416      -1.11165804      -1.86669344       0.06901287      -0.00023040      -0.00147312       0.00002472      -2.88396144
Au      -6.46698268      -0.00119964       5.20572053     -17.81078433      -0.03856559     -38.59230987      -0.00038220       0.00005499      -0.00108943      -2.85077596
Au      -6.21595216       2.24968315       3.56351330      -1.19161244      11.29655607     -10.07117503      -0.00064824      -0.00039928      -0.00060589      -2.85573936
Au      -5.80478553       4.38507492      -1.80793768       7.71250684       8.64466077       9.49824595      -0.00089418       0.00004443      -0.00104424      -2.84680676
Au      -5.80581804       4.38549174       1.80821409       7.70865924       8.72502375      -9.44274646      -0.00065834      -0.00038417       0.00106022      -2.84681487
Au      -5.22140950       6.48662791      -0.00023489      38.66553619      17.53954970      -0.04907255       0.00094162       0.00028091      -0.00005677      -2.85073519
Au      -3.56638933      -6.21352932      -2.24391698      10.01946780      -1.14703236     -11.23981790       0.00088334      -0.00097695      -0.00043419      -2.85568786
Au      -1.80615663      -5.80204825      -4.38680584       9.45682777       7.73011498      -8.59637029      -0.00163481      -0.00103816       0.00091140      -2.84677172
Au      -3.56645925      -6.21425675       2.24475673      10.06643327      -1.17760464      11.24829636       0.00065797      -0.00085953       0.00000912      -2.85570717
Au      -1.82283499      -6.67924834      -0.00006746     -14.38888601      -7.20455225       0.01412842      -0.00002462      -0.00105792      -0.00002258      -2.83243442
Au      -1.80742917      -5.80279604       4.38508449       9.49498872       7.77283374       8.61831848      -0.00113792      -0.00097704      -0.00016670      -2.84673858
Au      -4.39482620      -1.80418560      -5.80432384      -8.54695289       9.52150827       7.67897448       0.00062758      -0.00146975      -0.00106465      -2.84685922
Au      -2.24878724      -3.56388703      -6.21336872     -11.21049969      10.09314328      -1.14220886      -0.00046848       0.00096453      -0.00078608      -2.85571957
Au      -4.15672010      -4.15843150      -4.15744096      -1.29267305      -1.20171234      -1.20099788      -0.00039471      -0.00052498      -0.00057591      -2.72897315
Au      -4.05729613      -2.20767822      -1.76058196       2.20039016      -1.76250871       3.92905231      -0.00019508      -0.00006438       0.00093839      -2.68572044
Au      -1.74599624      -4.05192207      -2.23060125       3.81857133       2.41343259      -1.78210829       0.00087703       0.00006101       0.00023416      -2.68570280
Au      -2.19815368      -1.76287703      -4.04660539      -1.74731216       3.84404480       2.35424848       0.00083660       0.00031881      -0.00002741      -2.68567944
Au      -3.59507283      -4.46818466      -0.00168094       8.04427604       0.86081392      -0.02017147       0.00263321       0.00103863       0.00052843      -2.62488127
Au      -4.05634194      -2.20289798       1.76208055       2.32565601      -1.72716752      -3.87116709       0.00034087      -0.00073282      -0.00134149      -2.68570256
Au      -1.74306927      -4.05080854       2.23420773       3.87405273       2.49887676       1.79389324       0.00010363       0.00048986      -0.00149175      -2.68567371
Au      -1.68278584      -2.12834902      -0.00256468       7.57855481      -2.59500245       0.00813540      -0.00158290      -0.00261047       0.00123723      -2.92588139
Au      -4.15647652      -4.15853118       4.15760935      -1.25508299      -1.25411268       1.24951750      -0.00051916      -0.00060505       0.00042987      -2.72895503
Au      -4.39430325      -1.80560930       5.80586159      -8.61676996       9.54217827      -7.64800111       0.00019790      -0.00107688       0.00086950      -2.84681392
Au      -2.25090693      -3.56348220       6.21435010     -11.31572344      10.08136677       1.17788711       0.00027956       0.00055739       0.00076516      -2.85573053
Au      -2.19571045      -1.76263305       4.04317609      -1.68350938       3.86738600      -2.52815969       0.00080651       0.00054934      -0.00001700      -2.68565774
Au      -4.39736743       1.80566858      -5.81004571      -8.63888908      -9.52828322       7.66186693       0.00023908       0.00112517      -0.00087100      -2.84686065
Au      -2.20396086      -0.00055943      -6.38133602       1.97368800       0.02252751      -1.04358185       0.00141171      -0.00006849      -0.00018563      -2.88392472
Au      -4.45474064      -0.00915538      -3.57571803       0.60970034      -0.01088562       8.10149999      -0.00002127       0.00050803       0.00225095      -2.62480664
Au      -4.05068777       2.22716551      -1.74432239       2.35025309       1.70572212       3.95212458       0.00043420      -0.00143183       0.00034044      -2.68566227
Au      -2.15716653      -0.01371046      -1.69245233      -2.54330801       0.06325806       7.67144071      -0.00188752       0.00153338      -0.00110232      -2.92577720
Au      -2.17241296       1.77136591      -4.04082262      -1.73992689      -3.90485079       2.53778313       0.00026581      -0.00086593       0.00052402      -2.68566251
Au      -4.52642278      -0.00091105       0.00179594     -12.81455833       0.02967541       0.07428547       0.00175209       0.00022303      -0.00046632      -2.70735383
Au      -4.04961425       2.22235021       1.74585152       2.36715130       1.72055007      -3.90888578      -0.00045594      -0.00009194      -0.00066373      -2.68565774
Au      -2.17105149      -0.01357447       1.69999033      -2.71300405      -0.05145171      -7.55546708       0.00112873       0.00026488      -0.00049758      -2.92566824
Au      -1.73804575       2.20577399      -0.00244347       7.61746004       2.56793938      -0.10341335       0.00072505      -0.00089453      -0.00008895      -2.92568445
Au      -4.44428560      -0.00914908       3.56708942       0.84120604      -0.02470599      -8.24968888      -0.00258048       0.00031162      -0.00028907      -2.62486219
Au      -4.39688439       1.80703872       5.81158700      -8.63541731      -9.56550649      -7.68589613       0.00044167       0.00107227       0.00052240      -2.84684849
Au      -2.20385654      -0.00057184       6.38148502       1.98887253       0.01648533       1.04914045       0.00121565      -0.00017963       0.00006466      -2.88382745
Au      -2.16990988       1.77108667       4.03728252      -1.75275800      -3.94551003      -2.46547849      -0.00054652      -0.00090927       0.00075675      -2.68562293
Au      -2.25647185       3.56009214      -6.21638315     -11.21594471     -10.05368744      -1.14882090       0.00032706      -0.00047845      -0.00088162      -2.85571456
Au      -4.15701526       4.15939124      -4.15636021      -1.20287372       1.19178469      -1.23460111      -0.00051600       0.00058187      -0.00035063      -2.72898459
Au      -3.56325873       6.21897227      -2.25638741      10.04018289       1.21450172     -11.23972980       0.00035821       0.00070039       0.00032790      -2.85570097
Au      -1.74363931       4.03282409      -2.21737821       3.87727289      -2.44191406      -1.78623629       0.00081250      -0.00012033       0.00007946      -2.68566632
Au      -1.81271339       5.80980431      -4.38476424       9.48724130      -7.73465112      -8.74387154      -0.00094876       0.00088666       0.00031665      -2.84676313
Au      -3.54828831       4.39154368      -0.00167528       8.13737216      -0.81926694      -0.04191070       0.00043639       0.00266466       0.00031666      -2.62489557
Au      -3.56335974       6.21970557       2.25722178      10.06824071       1.15747336      11.28888566       0.00065982       0.00047226      -0.00037849      -2.85570979
Au      -1.74070412       4.03162066       2.22094775       3.93133755      -2.40476476       1.81761312       0.00022068       0.00092888      -0.00048606      -2.68562031
Au      -1.81927347       6.68321562      -0.00007221     -14.27988980       7.35114609       0.01044110      -0.00038279       0.00095530       0.00008056      -2.83237767
Au      -4.15683523       4.15945712       4.15650496      -1.24105250       1.19521617       1.23493302      -0.00040965       0.00064062       0.00050630      -2.72898746
Au      -2.25856138       3.55973120       6.21738342     -11.34182631     -10.06081122       1.14353659       0.00043780      -0.00054390       0.00061397      -2.85568714
Au      -1.81395192       5.81053516       4.38312345       9.49097283      -7.77801419       8.67816267      -0.00095455       0.00063248      -0.00033597      -2.84673929
Au      -0.00261841      -5.21564878      -6.47830196      -0.00925899      38.50264337     -17.59232366       0.00007641      -0.00044739      -0.00237589      -2.85068512
Au      -0.00026866      -6.37930582      -2.20455865      -0.07467381      -1.03156434       1.83455550      -0.00000544      -0.00014695       0.00139633      -2.88388729
Au       1.80897684      -5.81225637      -4.39191124      -9.44523307       7.65949654      -8.61447520       0.00145073      -0.00116279       0.00041407      -2.84681845
Au      -0.00029627      -6.37899555       2.20467081      -0.07199234      -1.02938839      -1.82946029       0.00014149      -0.00025403      -0.00130796      -2.88387322
Au       1.81707499      -6.67736922      -0.00006695      14.06421788      -7.23817203      -0.02094456       0.00037753      -0.00106927       0.00002566      -2.83239031
Au      -0.00260203      -5.22070249       6.48432526      -0.03463229      38.64269560      17.84457690      -0.00011156       0.00061191       0.00080556      -2.85073900
Au       1.81020614      -5.81301107       4.39025517      -9.41713894       7.74313995       8.56738321       0.00135958      -0.00098255      -0.00059250      -2.84678817
Au      -0.00100426      -1.82057459      -6.68046217       0.04472627     -14.24527511      -7.22018282       0.00000574      -0.00019507      -0.00107794      -2.83240604
Au       2.25695230      -3.56382288      -6.22089446      11.27791904       9.97022296      -1.25108527       0.00009547       0.00053959      -0.00108597      -2.85570145
Au      -0.01709577      -3.55630431      -4.41301145      -0.06545235       8.13247143       0.92199170       0.00019219       0.00339433       0.00176181      -2.62483168
Au      -0.02523732      -1.72289128      -2.19163737       0.09668780       7.50717074      -2.69117778       0.00141623      -0.00206939      -0.00330319      -2.92592955
Au       1.76239562      -4.04059090      -2.18357586      -3.82454662       2.49235054      -1.60486511      -0.00098195       0.00136450       0.00069062      -2.68569684
Au       2.23420710      -1.73240347      -4.03509389       1.78077726       3.89650732       2.47688978      -0.00175312       0.00024117       0.00113793      -2.68566751
Au       0.01974366      -4.52210272      -0.00012839      -0.00225798     -12.75790888      -0.06669305      -0.00005271       0.00225043      -0.00018965      -2.70727277
Au      -0.02504607      -1.73327283       2.20587082      -0.09076681       7.39630513       2.91377144      -0.00081703       0.00020522       0.00054511      -2.92571974
Au       1.75938953      -4.03937050       2.18712043      -3.83351922       2.34754766       1.69342464       0.00013954      -0.00045919      -0.00080581      -2.68568087
Au       1.75829770      -2.26697972      -0.00236600      -7.33166280      -2.95418833      -0.20254200       0.00136431      -0.00173325      -0.00098281      -2.92585588
Au      -0.01711146      -3.54788842       4.39886158      -0.05288264       8.31129119      -1.15174636      -0.00004137       0.00119923       0.00191466      -2.62489629
Au      -0.00098901      -1.81970924       6.68097923       0.01088489     -14.43100939       7.26469427      -0.00007090      -0.00045053       0.00093344      -2.83242178
Au       2.25910554      -3.56347115       6.22191804      11.36065864      10.02121950       1.20725581      -0.00031862       0.00067752       0.00072105      -2.85573578
Au       2.23165768      -1.73213760       4.03156713       1.77235273       3.85512941      -2.40235174      -0.00021790       0.00045881       0.00072489      -2.68566227
Au      -0.00093660       1.81620315      -6.67948219       0.04800429      14.38162175      -7.20823971       0.00000583       0.00027167      -0.00106348      -2.83241606
Au       2.20481227      -0.00063435      -6.37806993      -1.88733241       0.06798599      -1.04215343      -0.00145186       0.00015464      -0.00028679      -2.88382173
Au      -0.00190695       0.01019167      -4.51849045      -0.01270925       0.02627404     -12.75138053       0.00001361      -0.00050282       0.00219229      -2.70728445
Au      -0.02513574       1.76334999      -2.26711867      -0.14933917      -7.59162826      -2.61716653      -0.00099355       0.00005947       0.00008903      -2.92578983
Au       2.30124333      -0.01358516      -1.79656693       2.95947109      -0.17527886       7.37927096       0.00060715      -0.00097067      -0.00015740      -2.92575932
Au       2.20845386       1.74083871      -4.02928747       1.86672013      -3.86923700       2.34709328       0.00015745      -0.00042077      -0.00079329      -2.68567419
Au      -0.13868909      -0.07504163      -0.01367534      -0.22562679      -0.07362130      -0.20840134       0.00105368       0.00282165       0.00248817      -3.24068689
Au      -0.02520384       1.77363044       2.28129815       0.05416662      -7.49086002       2.76433995       0.00093093      -0.00142943      -0.00250786      -2.92567396
Au       2.31489965      -0.01368853       1.80407324       3.01843944       0.08589605      -7.38916579      -0.00085434       0.00180921      -0.00044893      -2.92577887
Au       1.81419093       2.34528576      -0.00250931      -7.36407914       2.89431872       0.10030284      -0.00100018      -0.00144835       0.00195857      -2.92566586
Au      -0.00189910       0.01018185       4.51660531      -0.02771390      -0.03746120      12.76453876      -0.00030473      -0.00046724      -0.00185980      -2.70716572
Au      -0.00089690       1.81531787       6.68002085       0.00167231      14.45345477       7.19965289       0.00056290       0.00078860       0.00108570      -2.83263087
Au       2.20476064      -0.00063467       6.37821339      -1.92157819      -0.03123184       1.05237123      -0.00132414      -0.00021766       0.00029149      -2.88396311
Au       2.20593772       1.74057862       4.02590584       1.76648416      -3.89573658      -2.44510578      -0.00037467      -0.00142527      -0.00271319      -2.68555093
Au      -0.00263744       5.23525965      -6.50679527       0.00210263     -38.61818637     -17.62587240      -0.00010510      -0.00051422      -0.00089592      -2.85071492
Au       2.26469982       3.56009087      -6.22396140      11.29977421     -10.05873508      -1.17868367      -0.00011827      -0.00071249      -0.00061394      -2.85569739
Au      -0.01716336       3.50866584      -4.35724560      -0.05948691      -8.12043305       0.87231655      -0.00002689      -0.00099004      -0.00124849      -2.62491035
Au      -0.00025971       6.38067953      -2.20378318      -0.04831773       1.07222296       1.81023794       0.00036651       0.00012697       0.00144138      -2.88393569
Au       1.76020827       4.02114581      -2.16987490      -3.87693336      -2.28987407      -1.66255269      -0.00058970       0.00100106      -0.00058641      -2.68568015
Au       1.81555275       5.82010125      -4.39000775      -9.41327238      -7.69380461      -8.64770627       0.00107673       0.00066783       0.00070600      -2.84676623
Au       0.01992292       4.51314446      -0.00018418      -0.01992405      12.73900404       0.04126865      -0.00018822      -0.00169768      -0.00012307      -2.70724440
Au      -0.00026260       6.38035360       2.20392797      -0.05986170       1.06937007      -1.82562485       0.00042993       0.00005522      -0.00111522      -2.88401866
Au       1.75723014       4.02011800       2.17351841      -3.90453223      -2.46042445       1.61882068       0.00353031      -0.00015922       0.00118972      -2.68611789
Au       1.81339410       6.68144234      -0.00004731      13.97559614       7.35092484       0.00308375       0.00042794       0.00059250      -0.00022582      -2.83234000
Au      -0.01719155       3.50029985       4.34321342      -0.00445755      -8.22914069      -1.06794223      -0.00005749       0.00030568       0.00309718      -2.62511468
Au      -0.00263310       5.24017996       6.51272214       0.02624562     -38.76424312      17.76413089      -0.00035382      -0.00130461       0.00001493      -2.85069633
Au       2.26685932       3.55975496       6.22494163      11.30885952     -10.04305019       1.22152328      -0.01011206      -0.00088010       0.01141982      -2.85554171
Au       1.81680267       5.82081383       4.38830908      -9.45320826      -7.69896009       8.69638143       0.00148204       0.00209741      -0.00198608      -2.84679508
Au       3.55988198      -6.21839435      -2.25867908     -10.02597265      -1.27761625     -11.20734264      -0.00058561      -0.00107217      -0.00031380      -2.85570955
Au       3.55999460      -6.21916364       2.25950091     -10.09092584      -1.22675021      11.22337385      -0.00103101      -0.00058503       0.00031097      -2.85574245
Au       5.23338066      -6.50461936      -0.00026538     -38.34949097     -17.70361339       0.03104643       0.00016854      -0.00184115      -0.00004101      -2.85071349
Au       4.37807758      -1.81612676      -5.81125430       8.66899348       9.42987432       7.66277973      -0.00000146      -0.00107916      -0.00122609      -2.84668922
Au       4.15842297      -4.15597922      -4.15902622       1.27934152      -1.27997969      -1.25563878       0.00047629      -0.00065871      -0.00035977      -2.72897387
Au       4.02244393      -2.18209676      -1.75747458      -2.56158181      -1.67414502       3.88204163      -0.00098454       0.00038722       0.00122435      -2.68561339
Au       5.81651846      -4.38950004      -1.81483817      -7.61796009      -8.64629115       9.55717349       0.00108126       0.00032016      -0.00125390      -2.84679914
Au       6.22186898      -2.26588292      -3.55996728       1.22107974     -11.34206600      10.02951546       0.00117575       0.00039221       0.00029726      -2.85569644
Au       3.50802481      -4.36402641      -0.00168776      -8.27735544       1.00198846      -0.00416338      -0.00248158       0.00091877       0.00035584      -2.62482619
Au       4.02124801      -2.17735292       1.75907509      -2.35577597      -1.75506700      -3.84746996       0.00059409      -0.00099811      -0.00125986      -2.68566036
Au       5.81756111      -4.38999498       1.81509353      -7.68343949      -8.60581447      -9.52515809       0.00068664       0.00091527       0.00136829      -2.84680247
Au       6.38157610      -2.20330522      -0.00010043       1.03325979       2.01098616       0.01148245       0.00003644       0.00129284       0.00029909      -2.88382173
Au       4.15816585      -4.15617568       4.15924186       1.25570943      -1.31161678       1.27775104       0.00070623      -0.00054731       0.00024918      -2.72898245
Au       4.37768106      -1.81749313       5.81271483       8.68785475       9.48124409      -7.67531372      -0.00065508      -0.00111958       0.00076788      -2.84665632
Au       6.22236203      -2.26732586       3.55939652       1.19414726     -11.36180365     -10.04098463       0.00080616       0.00021078      -0.00058271      -2.85570812
Au       4.38064201       1.81758202      -5.81699832       8.62071812      -9.43628314       7.76252195      -0.00069663       0.00125393      -0.00069560      -2.84668469
Au       6.52344222      -0.00123759      -5.24982404      17.88538991       0.02852351      38.65179014       0.00081100      -0.00006703       0.00019858      -2.85066628
Au       4.31197741      -0.00924771      -3.49013734      -1.25932582       0.01669069       8.22905756       0.00165711       0.00042137       0.00122059      -2.62489271
Au       4.01551227       2.20181272      -1.74090090      -2.36459221       1.74168129       3.84820931       0.00101467      -0.00059703       0.00005834      -2.68558717
Au       6.68302418      -0.00025445      -1.81448132       7.16546539       0.00977721     -14.53970845       0.00091411       0.00024576      -0.00007799      -2.83249378
Au       6.22558673       2.27074275      -3.56002550       1.16999418      11.36798941      10.11854277       0.00054190      -0.00026061       0.00093988      -2.85567069
Au       4.50827565      -0.00086824       0.00194129      12.75703447      -0.03112379       0.00707447      -0.00201959      -0.00057671      -0.00056740      -2.70706058
Au       4.01447098       2.19715286       1.74255835      -2.53941831       1.69222114      -3.89470007      -0.00014286       0.00377117       0.00316353      -2.68618393
Au       6.68278720      -0.00028553       1.81387836       7.15682119       0.01352124      14.50071073       0.00068717       0.00014124       0.00028252      -2.83248115
Au       6.37936884       2.20422601      -0.00000536       1.01838519      -1.96024918      -0.02861118      -0.00006753      -0.00135758       0.00027678      -2.88385844
Au       4.30164623      -0.00926157       3.48158840      -1.15942486       0.01571427      -8.28426241       0.00221941       0.00077311      -0.00093090      -2.62515712
Au       4.38016929       1.81892860       5.81841669       8.75582567      -9.50574719      -7.69748329       0.00340400      -0.00693263       0.00631381      -2.84651566
Au       6.52846281      -0.00123620       5.25347220      17.89647749       0.04660261     -38.73414732       0.00017549       0.00007233      -0.00041614      -2.85062742
Au       6.22604652       2.27213009       3.55935009       1.20822370      11.36365380     -10.07919884      -0.00299064       0.00436150      -0.00140846      -2.85563374
Au       4.15878608       4.15692933      -4.15785456       1.26013387       1.32772427      -1.18506688       0.00049205       0.00046421      -0.00071328      -2.72891831
Au       3.55668878       6.22393071      -2.27137420     -10.04078147       1.21349901     -11.20798056      -0.00067232       0.00046978       0.00028552      -2.85561395
Au       5.81939712       4.38080435      -1.82111492      -7.69687477       8.63970205       9.46603071       0.00066209      -0.00031248      -0.00114938      -2.84683561
Au       3.46014722       4.28573485      -0.00170369      -8.24288837      -0.85431340       0.00377005       0.00035933       0.00278911       0.00234496      -2.62524700
Au       3.55673684       6.22463941       2.27223394     -10.01833931       1.21480188      11.21162577       0.00276071      -0.01149653       0.00931220      -2.85579848
Au       5.82043599       4.38125909       1.82141422      -7.66333453       8.72058492      -9.50892153      -0.01046914      -0.00282237       0.01471508      -2.84697747
Au       5.25731648       6.53899178      -0.00027780     -38.20809102      17.69530021      -0.00421276      -0.00154801       0.00020520       0.00056897      -2.85069513
Au       4.15858791       4.15708466       4.15804395       1.33974577       1.26302862       1.20305007       0.01423692       0.01426895      -0.04204863      -2.72824073
