147
Properties=species:S:1:pos:R:3:masses:R:1:forces:R:3:energies:R:1 energy=-413.3391418457031 label=0 n_visit=1 free_energy=-413.3391418457031 pbc="F F F"
Au      -5.96600188      -5.96804062       0.00003856       1.00000000      -0.00088416      -0.00024533      -0.00001978      -2.84212160
Au      -6.09236699      -4.04498583      -2.07902063       1.00000000      -0.00099383      -0.00057121       0.00031686      -2.85246277
Au      -6.09237113      -2.07930670      -4.04449197       1.00000000      -0.00103808       0.00033313      -0.00072822      -2.85248685
Au      -6.09257917      -4.04467301       2.07877893       1.00000000      -0.00090025      -0.00063915      -0.00012907      -2.85242367
Au      -6.26333348      -2.02297170      -0.00044294       1.00000000       0.00015723       0.00029259       0.00035972      -2.89560866
Au      -6.09238914      -2.07911517       4.04408582       1.00000000      -0.00112699       0.00007727       0.00068123      -2.85245395
Au      -5.96595376       0.00001887      -5.96726026       1.00000000      -0.00092722       0.00003134      -0.00046373      -2.84209871
Au      -6.26337942      -0.00042911      -2.02281842       1.00000000       0.00021889       0.00040322       0.00031151      -2.89559317
Au      -6.09259262       2.07907946      -4.04423356       1.00000000      -0.00091968      -0.00034156      -0.00072989      -2.85244989
Au      -6.26323372      -0.00046229       2.02186180       1.00000000       0.00013145       0.00015980       0.00006467      -2.89558005
Au      -6.26323648       2.02208044      -0.00049347       1.00000000       0.00009504       0.00004932       0.00011562      -2.89558291
Au      -5.96561776      -0.00008613       5.96679069       1.00000000      -0.00124700       0.00014710       0.00084856      -2.84214735
Au      -6.09201386       2.07859423       4.04363588       1.00000000      -0.00115522      -0.00045572       0.00095700      -2.85248899
Au      -6.09242672       4.04460678      -2.07888194       1.00000000      -0.00104502       0.00057576       0.00028162      -2.85243106
Au      -6.09203855       4.04409972       2.07831467       1.00000000      -0.00114863       0.00096046      -0.00045019      -2.85246587
Au      -5.96575748       5.96760999      -0.00008385       1.00000000      -0.00082488       0.00022382       0.00013709      -2.84218001
Au      -4.04371246      -6.09471559      -2.07909663       1.00000000      -0.00131092      -0.00022285       0.00058789      -2.85248280
Au      -2.07874937      -6.09454222      -4.04446832       1.00000000       0.00023924      -0.00045554      -0.00090279      -2.85240936
Au      -4.04423309      -6.09447609       2.07967960       1.00000000      -0.00092821      -0.00042566      -0.00090825      -2.85246539
Au      -2.02251558      -6.26524678       0.00042980       1.00000000       0.00015298       0.00027220      -0.00012719      -2.89549589
Au      -2.07922388      -6.09455450       4.04506618       1.00000000       0.00079047      -0.00033972       0.00067909      -2.85241294
Au      -4.04363840      -2.07926271      -6.09394735       1.00000000      -0.00108266       0.00047466      -0.00043394      -2.85249591
Au      -2.07865684      -4.04485185      -6.09383111       1.00000000       0.00008944      -0.00057183      -0.00058611      -2.85240006
Au      -4.27202391      -4.27329435      -4.27286845       1.00000000      -0.00047517      -0.00021217      -0.00032400      -2.72371912
Au      -4.10065117      -2.02937161      -2.02911552       1.00000000      -0.00035349      -0.00075567      -0.00050690      -2.69331312
Au      -2.02895098      -4.10232429      -2.02908548       1.00000000      -0.00054349       0.00052212      -0.00039402      -2.69319677
Au      -2.02881107      -2.02923836      -4.10176067       1.00000000      -0.00066461      -0.00051192       0.00011998      -2.69323587
Au      -4.04416458      -4.04575937       0.00006830       1.00000000       0.00145404       0.00234890      -0.00008620      -2.62998915
Au      -4.10063400      -2.02934624       2.02871841       1.00000000      -0.00034713      -0.00064971       0.00045294      -2.69338703
Au      -2.02905533      -4.10245702       2.02957539       1.00000000      -0.00061883       0.00068404       0.00022083      -2.69319224
Au      -2.04446013      -2.04544533       0.00002322       1.00000000       0.00224289       0.00291877       0.00013538      -2.92775559
Au      -4.27269889      -4.27352307       4.27341711       1.00000000      -0.00011303      -0.00009747      -0.00002016      -2.72359705
Au      -4.04345209      -2.07928305       6.09358806       1.00000000      -0.00113004       0.00021994       0.00089562      -2.85247421
Au      -2.07850603      -4.04486658       6.09389507       1.00000000       0.00010306      -0.00085725       0.00055952      -2.85239220
Au      -2.02842281      -2.02958968       4.10161627       1.00000000      -0.00070803      -0.00032244      -0.00016969      -2.69330478
Au      -4.04417036       2.07982302      -6.09373796       1.00000000      -0.00069864      -0.00100697      -0.00057992      -2.85247684
Au      -2.02250339       0.00039434      -6.26467242       1.00000000       0.00008009      -0.00006042       0.00040173      -2.89550972
Au      -4.04412080       0.00003166      -4.04517123       1.00000000       0.00180496       0.00017919       0.00218607      -2.63000369
Au      -4.10065282       2.02901960      -2.02912363       1.00000000      -0.00039207       0.00052591      -0.00060645      -2.69336438
Au      -2.04443374       0.00002928      -2.04508235       1.00000000       0.00231697       0.00022647       0.00291757      -2.92775512
Au      -2.02888279       2.02968721      -4.10195216       1.00000000      -0.00097718       0.00026429       0.00036116      -2.69321775
Au      -4.18081364      -0.00037235      -0.00043778       1.00000000      -0.00295486       0.00012476       0.00021350      -2.76547766
Au      -4.10032497       2.02856338       2.02827256       1.00000000      -0.00039863       0.00100179       0.00120007      -2.69334412
Au      -2.04410637      -0.00032654       2.04467143       1.00000000       0.00251037       0.00041805      -0.00277401      -2.92778921
Au      -2.04414741       2.04510166      -0.00034786       1.00000000       0.00244031      -0.00311062       0.00034527      -2.92776346
Au      -4.04374378      -0.00042580       4.04458841       1.00000000       0.00177483       0.00080867      -0.00201343      -2.63000035
Au      -4.04302083       2.07875889       6.09322108       1.00000000      -0.00135043      -0.00059095       0.00088741      -2.85251164
Au      -2.02156655      -0.00046381       6.26432464       1.00000000      -0.00025263       0.00019194      -0.00011287      -2.89553905
Au      -2.02798442       2.02882422       4.10129788       1.00000000      -0.00155559       0.00057601      -0.00004213      -2.69325995
Au      -2.07916764       4.04541799      -6.09386733       1.00000000       0.00095150       0.00051918      -0.00042133      -2.85240483
Au      -4.27257628       4.27372108      -4.27298604       1.00000000      -0.00015266       0.00003604      -0.00024267      -2.72362781
Au      -4.04355962       6.09440346      -2.07910501       1.00000000      -0.00121815       0.00052301       0.00032063      -2.85246944
Au      -2.02858582       4.10216108      -2.02946231       1.00000000      -0.00069992      -0.00015636      -0.00036832      -2.69325280
Au      -2.07860095       6.09463493      -4.04450586       1.00000000       0.00034715       0.00023273      -0.00108267      -2.85241246
Au      -4.04379763       4.04518177      -0.00039893       1.00000000       0.00097821      -0.00163525       0.00049663      -2.62997007
Au      -4.04311017       6.09400003       2.07859383       1.00000000      -0.00152279       0.00063055      -0.00061162      -2.85250473
Au      -2.02817125       4.10180364       2.02869914       1.00000000      -0.00127524      -0.00003012       0.00069421      -2.69321680
Au      -2.02162381       6.26496234      -0.00044810       1.00000000      -0.00011160      -0.00011831       0.00014198      -2.89551425
Au      -4.27100297       4.27216372       4.27172565       1.00000000      -0.00077611       0.00049273       0.00060244      -2.72382689
Au      -2.07805596       4.04428149       6.09336642       1.00000000       0.00042433       0.00116466       0.00083834      -2.85243344
Au      -2.07813688       6.09406169       4.04395374       1.00000000       0.00046089       0.00062420       0.00128945      -2.85244918
Au      -0.00018953      -5.96771207      -5.96702428       1.00000000       0.00021072      -0.00065800      -0.00087874      -2.84219909
Au      -0.00037003      -6.26475073      -2.02205338       1.00000000       0.00000926      -0.00031061       0.00026513      -2.89553428
Au       2.07808350      -6.09377037      -4.04392062       1.00000000      -0.00002608      -0.00090695      -0.00124811      -2.85245585
Au      -0.00043758      -6.26516756       2.02279120       1.00000000       0.00006447       0.00013889      -0.00019504      -2.89552069
Au       2.02166054      -6.26460991       0.00034403       1.00000000      -0.00001496      -0.00026532      -0.00004112      -2.89556026
Au      -0.00008561      -5.96820426       5.96735746       1.00000000      -0.00002854      -0.00008459       0.00036026      -2.84215927
Au       2.07848505      -6.09460940       4.04444532       1.00000000      -0.00002038      -0.00017520       0.00103980      -2.85244441
Au      -0.00040780      -2.02225007      -6.26419017       1.00000000       0.00000244       0.00035256      -0.00022535      -2.89555907
Au       2.07795690      -4.04425366      -6.09307689       1.00000000       0.00007093      -0.00106654      -0.00106986      -2.85243988
Au      -0.00053731      -4.04530270      -4.04481331       1.00000000       0.00064300       0.00183482       0.00164472      -2.62991762
Au      -0.00056728      -2.04497972      -2.04462534       1.00000000       0.00085453       0.00218844       0.00213477      -2.92773795
Au       2.02809825      -4.10144536      -2.02863164       1.00000000       0.00098069       0.00033662      -0.00044844      -2.69338250
Au       2.02790304      -2.02874432      -4.10091619       1.00000000       0.00117561      -0.00053337       0.00011033      -2.69342113
Au      -0.00054947      -4.18216107       0.00045002       1.00000000       0.00046705      -0.00328852      -0.00037480      -2.76543140
Au      -0.00010424      -2.04545271       2.04503021       1.00000000      -0.00020616       0.00293489      -0.00251930      -2.92772031
Au       2.02849455      -4.10203258       2.02938115       1.00000000       0.00092146       0.00017648       0.00016695      -2.69328332
Au       2.04405080      -2.04475075       0.00046611       1.00000000      -0.00177890       0.00164352      -0.00091248      -2.92773604
Au      -0.00013025      -4.04585228       4.04516372       1.00000000       0.00007600       0.00171212      -0.00135603      -2.62994456
Au       0.00043135      -2.02298593       6.26438495       1.00000000      -0.00037836       0.00032003      -0.00003541      -2.89558530
Au       2.07859817      -4.04506739       6.09349121       1.00000000       0.00014078      -0.00077484       0.00073234      -2.85244536
Au       2.02877306      -2.02953108       4.10134690       1.00000000       0.00077962      -0.00040989       0.00020640      -2.69331717
Au      -0.00044775       2.02298318      -6.26460427       1.00000000       0.00008766      -0.00025993       0.00021324      -2.89554906
Au       2.02158975       0.00034329      -6.26402089       1.00000000       0.00012632       0.00004692      -0.00012130      -2.89558291
Au      -0.00057986       0.00045334      -4.18168475       1.00000000       0.00048516      -0.00043715      -0.00322377      -2.76541877
Au      -0.00010210       2.04540875      -2.04509866       1.00000000      -0.00036730      -0.00287925       0.00286032      -2.92769027
Au       2.04400246       0.00046146      -2.04435085       1.00000000      -0.00181468      -0.00097837       0.00158257      -2.92773342
Au       2.02831041       2.02950114      -4.10146148       1.00000000       0.00132164       0.00010079      -0.00032312      -2.69333148
Au      -0.00005350       0.00006425       0.00003331       1.00000000      -0.00072208       0.00004994       0.00021172      -3.10822678
Au       0.00026207       2.04512070       2.04472190       1.00000000      -0.00036002      -0.00322325      -0.00280960      -2.92772031
Au       2.04453946       0.00002235       2.04478559       1.00000000      -0.00263605       0.00031063      -0.00202427      -2.92771649
Au       2.04454233       2.04518545       0.00001534       1.00000000      -0.00245464      -0.00231775       0.00037330      -2.92769146
Au       0.00033542      -0.00035537       4.18161525       1.00000000      -0.00002676       0.00006961       0.00296951      -2.76546192
Au       0.00047544       2.02210395       6.26429535       1.00000000      -0.00015293       0.00001989       0.00003630      -2.89556122
Au       2.02241882      -0.00041904       6.26426619       1.00000000       0.00006218       0.00041809      -0.00017644      -2.89559531
Au       2.02876901       2.02919767       4.10134289       1.00000000       0.00105353       0.00009842       0.00028809      -2.69337749
Au      -0.00011048       5.96802957      -5.96759002       1.00000000       0.00000098      -0.00027797       0.00015584      -2.84216619
Au       2.07840709       4.04480865      -6.09386800       1.00000000      -0.00005376       0.00081473      -0.00035880      -2.85243011
Au      -0.00011315       4.04561042      -4.04532570       1.00000000      -0.00011458      -0.00088051       0.00092119      -2.62996435
Au       0.00042705       6.26500746      -2.02279573       1.00000000      -0.00038066      -0.00008745       0.00023330      -2.89556170
Au       2.02892523       4.10185328      -2.02940483       1.00000000       0.00079063       0.00030020      -0.00034360      -2.69327784
Au       2.07869539       6.09420294      -4.04471152       1.00000000      -0.00009203       0.00050686      -0.00100319      -2.85246086
Au       0.00030444       4.18208987      -0.00039078       1.00000000      -0.00004919       0.00340172       0.00014573      -2.76546478
Au       0.00043747       6.26487504       2.02191449       1.00000000      -0.00015716       0.00004493       0.00005070      -2.89554119
Au       2.02888327       4.10187201       2.02903320       1.00000000       0.00097317       0.00021173       0.00022181      -2.69334674
Au       2.02242709       6.26488085      -0.00042436       1.00000000       0.00001126      -0.00018050       0.00035546      -2.89557981
Au       0.00031800       4.04526862       4.04479160       1.00000000      -0.00038546      -0.00089502      -0.00072774      -2.62992859
Au       0.00001548       5.96775983       5.96714005       1.00000000      -0.00013067       0.00001793       0.00025085      -2.84222054
Au       2.07844979       4.04468259       6.09357781       1.00000000       0.00010941       0.00080724       0.00076844      -2.85241723
Au       2.07848454       6.09428195       4.04431992       1.00000000       0.00016043       0.00053027       0.00097925      -2.85242939
Au       4.04300494      -6.09366134      -2.07864706       1.00000000       0.00156115      -0.00094069       0.00035193      -2.85250139
Au       4.04346125      -6.09425139       2.07913418       1.00000000       0.00118716      -0.00053108      -0.00016087      -2.85246706
Au       5.96545754      -5.96750622       0.00012087       1.00000000       0.00156212      -0.00076810      -0.00021465      -2.84216523
Au       4.04286793      -2.07879184      -6.09290123       1.00000000       0.00151522       0.00041744      -0.00114452      -2.85251617
Au       4.27172847      -4.27283713      -4.27243841       1.00000000       0.00026754      -0.00022689      -0.00024761      -2.72366309
Au       4.10046307      -2.02840297      -2.02812363       1.00000000      -0.00022519      -0.00122218      -0.00109771      -2.69340897
Au       6.09198019      -4.04418974      -2.07843401       1.00000000       0.00119808      -0.00079042       0.00031487      -2.85244536
Au       6.09195312      -2.07872468      -4.04369137       1.00000000       0.00123389       0.00044099      -0.00098511      -2.85247421
Au       4.04384822      -4.04490200       0.00044611       1.00000000      -0.00170222       0.00204366      -0.00061197      -2.63004708
Au       4.10102888      -2.02880680       2.02893762       1.00000000       0.00011867      -0.00121278       0.00064497      -2.69330812
Au       6.09252130      -4.04469041       2.07897453       1.00000000       0.00083254      -0.00030303      -0.00010688      -2.85241652
Au       6.26363804      -2.02223558       0.00039165       1.00000000      -0.00010935      -0.00001323      -0.00003227      -2.89557171
Au       4.27244514      -4.27357423       4.27303146       1.00000000       0.00008802      -0.00005343       0.00013235      -2.72363782
Au       4.04371708      -2.07940046       6.09336376       1.00000000       0.00117165       0.00022911       0.00086916      -2.85251236
Au       6.09277076      -2.07914561       4.04431350       1.00000000       0.00062892       0.00031386       0.00057300      -2.85245609
Au       4.04338203       2.07931320      -6.09345208       1.00000000       0.00090267      -0.00021545      -0.00068730      -2.85247421
Au       5.96537157       0.00011991      -5.96669739       1.00000000       0.00153531      -0.00024359      -0.00094938      -2.84213996
Au       4.04376078       0.00042645      -4.04427250       1.00000000      -0.00194955      -0.00049769       0.00179318      -2.63009834
Au       4.10101878       2.02917398      -2.02850398       1.00000000       0.00021778       0.00074852      -0.00122639      -2.69332170
Au       6.26364760       0.00035764      -2.02201131       1.00000000      -0.00015142       0.00004752      -0.00008553      -2.89557433
Au       6.09247159       2.07926962      -4.04420805       1.00000000       0.00084514      -0.00022888      -0.00035704      -2.85243344
Au       4.18152335       0.00044250       0.00046887       1.00000000       0.00229306      -0.00034282      -0.00031340      -2.76522064
Au       4.10122582       2.02927404       2.02901727       1.00000000      -0.00012553       0.00094613       0.00094621      -2.69330597
Au       6.26408632       0.00041183       2.02282666       1.00000000      -0.00063396      -0.00004839       0.00005694      -2.89554501
Au       6.26406048       2.02300340       0.00044457       1.00000000      -0.00059831       0.00007779      -0.00011573      -2.89556313
Au       4.04441005       0.00002866       4.04470546       1.00000000      -0.00203773       0.00032376      -0.00169420      -2.63008451
Au       4.04345539       2.07919820       6.09361266       1.00000000       0.00114543      -0.00028946       0.00062076      -2.85247564
Au       5.96593551       0.00003774       5.96711185       1.00000000       0.00098540       0.00002344       0.00047975      -2.84209061
Au       6.09255269       2.07974744       4.04486579       1.00000000       0.00069747      -0.00083150       0.00016166      -2.85243797
Au       4.27249547       4.27353936      -4.27321401       1.00000000       0.00011302      -0.00002478      -0.00011969      -2.72361159
Au       4.04382150       6.09412150      -2.07924143       1.00000000       0.00125789       0.00056745       0.00040152      -2.85250139
Au       6.09274956       4.04479898      -2.07888048       1.00000000       0.00057637       0.00044324       0.00040584      -2.85242844
Au       4.04442360       4.04525129       0.00004733       1.00000000      -0.00119753      -0.00123808       0.00025731      -2.63008928
Au       4.04349927       6.09437752       2.07903492       1.00000000       0.00137020       0.00027445      -0.00034132      -2.85247207
Au       6.09255995       4.04531454       2.07952207       1.00000000       0.00061608       0.00016146      -0.00092735      -2.85241914
Au       5.96604327       5.96788212       0.00007911       1.00000000       0.00053016      -0.00013995      -0.00000798      -2.84211969
Au       4.27256382       4.27406209       4.27364614       1.00000000       0.00011095      -0.00024424      -0.00023038      -2.72353339
