147
Properties=species:S:1:pos:R:3:momenta:R:3 barriertype=s energy=-412.0446790448444 pbc="F F F"
Au      -5.22805647      -6.49561435      -0.00003214      38.56629766     -17.53624864       0.02415635
Au      -5.81133738      -4.38763669      -1.81128825       7.70810205      -8.67544588       9.43070647
Au      -6.21903649      -2.25802511      -3.56129844      -1.21297328     -11.18717870       9.99913324
Au      -5.81134788      -4.38752062       1.81129583       7.72915915      -8.77546984      -9.42413675
Au      -6.37979516      -2.20409899      -0.00009780      -1.08868972       1.82608322       0.04512466
Au      -6.21900576      -2.25798066       3.56136038      -1.26472357     -11.23332996     -10.08202147
Au      -6.49585268       0.00008237      -5.22639914     -17.55075791      -0.01249714      38.30585199
Au      -6.68047887       0.00015713      -1.81844900      -7.30994328      -0.00506477     -14.07889296
Au      -6.21885021       2.25827529      -3.56128259      -1.16953801      11.13595456      10.01406360
Au      -6.68028989       0.00007381       1.81819239      -7.33551636      -0.01770883      14.29730315
Au      -6.37957930       2.20431712      -0.00005562      -1.11165804      -1.86669344       0.06901287
Au      -6.49566398       0.00009055       5.22689153     -17.81078433      -0.03856559     -38.59230987
Au      -6.21882986       2.25814110       3.56131400      -1.19161244      11.29655607     -10.07117503
Au      -5.81095120       4.38776029      -1.81121164       7.71250684       8.64466077       9.49824595
Au      -5.81096178       4.38770584       1.81121102       7.70865924       8.72502375      -9.44274646
Au      -5.22713241       6.49601450       0.00000346      38.66553619      17.53954970      -0.04907255
Au      -3.56167874      -6.21922165      -2.25767049      10.01946780      -1.14703236     -11.23981790
Au      -1.81149409      -5.81145174      -4.38738956       9.45682777       7.73011498      -8.59637029
Au      -3.56175932      -6.21925316       2.25766257      10.06643327      -1.17760464      11.24829636
Au      -1.81738385      -6.68005956      -0.00000541     -14.38888601      -7.20455225       0.01412842
Au      -1.81161485      -5.81160040       4.38727015       9.49498872       7.77283374       8.61831848
Au      -4.38777522      -1.81145166      -5.81087724      -8.54695289       9.52150827       7.67897448
Au      -2.25814242      -3.56180747      -6.21886364     -11.21049969      10.09314328      -1.14220886
Au      -4.15775847      -4.15784423      -4.15745894      -1.29267305      -1.20171234      -1.20099788
Au      -4.03584823      -2.20235396      -1.75145214       2.20039016      -1.76250871       3.92905231
Au      -1.75143201      -4.03637054      -2.20199017       3.81857133       2.41343259      -1.78210829
Au      -2.20225803      -1.75176458      -4.03585803      -1.74731216       3.84404480       2.35424848
Au      -3.52824059      -4.37834028      -0.00002627       8.04427604       0.86081392      -0.02017147
Au      -4.03597611      -2.20221603       1.75139685       2.32565601      -1.72716752      -3.87116709
Au      -1.75145843      -4.03643091       2.20207540       3.87405273       2.49887676       1.79389324
Au      -1.74801345      -2.23648312      -0.00005923       7.57855481      -2.59500245       0.00813540
Au      -4.15772848      -4.15783700       4.15746216      -1.25508299      -1.25411268       1.24951750
Au      -4.38765767      -1.81162147       5.81097372      -8.61676996       9.54217827      -7.64800111
Au      -2.25801650      -3.56190993       6.21885315     -11.31572344      10.08136677       1.17788711
Au      -2.20225701      -1.75188938       4.03586553      -1.68350938       3.86738600      -2.52815969
Au      -4.38765498       1.81146714      -5.81097883      -8.63888908      -9.52828322       7.66186693
Au      -2.20460799      -0.00014235      -6.37958725       1.97368800       0.02252751      -1.04358185
Au      -4.37774400       0.00000496      -3.52788360       0.60970034      -0.01088562       8.10149999
Au      -4.03568330       2.20248391      -1.75143801       2.35025309       1.70572212       3.95212458
Au      -2.23621277      -0.00011551      -1.74794081      -2.54330801       0.06325806       7.67144071
Au      -2.20216384       1.75165041      -4.03601088      -1.73992689      -3.90485079       2.53778313
Au      -4.51772677       0.00003374      -0.00009434     -12.81455833       0.02967541       0.07428547
Au      -4.03568016       2.20231464       1.75140509       2.36715130       1.72055007      -3.90888578
Au      -2.23638524      -0.00004114       1.74809021      -2.71300405      -0.05145171      -7.55546708
Au      -1.74781056       2.23668287       0.00001878       7.61746004       2.56793938      -0.10341335
Au      -4.37758461       0.00000383       3.52790558       0.84120604      -0.02470599      -8.24968888
Au      -4.38756315       1.81159285       5.81108430      -8.63541731      -9.56550649      -7.68589613
Au      -2.20462342      -0.00015742       6.37952392       1.98887253       0.01648533       1.04914045
Au      -2.20211351       1.75172966       4.03594960      -1.75275800      -3.94551003      -2.46547849
Au      -2.25803646       3.56163938      -6.21903576     -11.21594471     -10.05368744      -1.14882090
Au      -4.15749643       4.15785647      -4.15757637      -1.20287372       1.19178469      -1.23460111
Au      -3.56124783       6.21925557      -2.25788520      10.04018289       1.21450172     -11.23972980
Au      -1.75114193       4.03625940      -2.20213018       3.87727289      -2.44191406      -1.78623629
Au      -1.81126849       5.81141055      -4.38746544       9.48724130      -7.73465112      -8.74387154
Au      -3.52768164       4.37808326      -0.00000818       8.13737216      -0.81926694      -0.04191070
Au      -3.56135532       6.21929055       2.25787846      10.06824071       1.15747336      11.28888566
Au      -1.75117653       4.03623851       2.20216338       3.93133755      -2.40476476       1.81761312
Au      -1.81760019       6.68043305      -0.00001128     -14.27988980       7.35114609       0.01044110
Au      -4.15752790       4.15782189       4.15755048      -1.24105250       1.19521617       1.23493302
Au      -2.25790395       3.56176791       6.21904691     -11.34182631     -10.06081122       1.14353659
Au      -1.81136676       5.81155911       4.38741437       9.49097283      -7.77801419       8.67816267
Au      -0.00020343      -5.22762448      -6.49547590      -0.00925899      38.50264337     -17.59232366
Au       0.00049443      -6.37971235      -2.20428817      -0.07467381      -1.03156434       1.83455550
Au       1.81156935      -5.81125375      -4.38761247      -9.44523307       7.65949654      -8.61447520
Au       0.00046887      -6.37976245       2.20425088      -0.07199234      -1.02938839      -1.82946029
Au       1.81873990      -6.68011931      -0.00000001      14.06421788      -7.23817203      -0.02094456
Au      -0.00018194      -5.22819133       6.49536974      -0.03463229      38.64269560      17.84457690
Au       1.81163983      -5.81141008       4.38756063      -9.41713894       7.74313995       8.56738321
Au      -0.00033795      -1.81829641      -6.68026432       0.04472627     -14.24527511      -7.22018282
Au       2.25768772      -3.56176182      -6.21925247      11.27791904       9.97022296      -1.25108527
Au      -0.00008324      -3.52844767      -4.37800190      -0.06545235       8.13247143       0.92199170
Au      -0.00003568      -1.74824536      -2.23622743       0.09668780       7.50717074      -2.69117778
Au       1.75191391      -4.03597646      -2.20231353      -3.82454662       2.49235054      -1.60486511
Au       2.20221219      -1.75163457      -4.03642238       1.78077726       3.89650732       2.47688978
Au       0.00058818      -4.51747713       0.00003784      -0.00225798     -12.75790888      -0.06669305
Au       0.00009818      -1.74848430       2.23636566      -0.09076681       7.39630513       2.91377144
Au       1.75186883      -4.03593377       2.20233751      -3.83351922       2.34754766       1.69342464
Au       1.74853204      -2.23610549       0.00009648      -7.33166280      -2.95418833      -0.20254200
Au      -0.00007301      -3.52849649       4.37783348      -0.05288264       8.31129119      -1.15174636
Au      -0.00031316      -1.81811376       6.68013214       0.01088489     -14.43100939       7.26469427
Au       2.25760192      -3.56191356       6.21928060      11.36065864      10.02121950       1.20725581
Au       2.20207911      -1.75175683       4.03634644       1.77235273       3.85512941      -2.40235174
Au      -0.00026048       1.81775998      -6.68034534       0.04800429      14.38162175      -7.20823971
Au       2.20404209      -0.00022429      -6.38002641      -1.88733241       0.06798599      -1.04215343
Au      -0.00016069      -0.00016169      -4.51765783      -0.01270925       0.02627404     -12.75138053
Au       0.00012428       1.74815354      -2.23658405      -0.14933917      -7.59162826      -2.61716653
Au       2.23633471       0.00005671      -1.74867661       2.95947109      -0.17527886       7.37927096
Au       2.20203424       1.75146468      -4.03648303       1.86672013      -3.86923700       2.34709328
Au       0.00010125      -0.00019047      -0.00007035      -0.22562679      -0.07362130      -0.20840134
Au       0.00000727       1.74834691       2.23673007       0.05416662      -7.49086002       2.76433995
Au       2.23636987      -0.00010270       1.74882649       3.01843944       0.08589605      -7.38916579
Au       1.74830886       2.23627617      -0.00007326      -7.36407914       2.89431872       0.10030284
Au      -0.00015457      -0.00018281       4.51745916      -0.02771390      -0.03746120      12.76453876
Au      -0.00023188       1.81757140       6.68021961       0.00167231      14.45345477       7.19965289
Au       2.20411817      -0.00022217       6.37995290      -1.92157819      -0.03123184       1.05237123
Au       2.20197049       1.75158875       4.03657282       1.76648416      -3.89573658      -2.44510578
Au      -0.00020600       5.22780507      -6.49576330       0.00210263     -38.61818637     -17.62587240
Au       2.25761251       3.56168730      -6.21945836      11.29977421     -10.05873508      -1.17868367
Au      -0.00005485       3.52810932      -4.37820031      -0.05948691      -8.12043305       0.87231655
Au       0.00050674       6.37989040      -2.20420250      -0.04831773       1.07222296       1.81023794
Au       1.75163320       4.03567695      -2.20241474      -3.87693336      -2.28987407      -1.66255269
Au       1.81134043       5.81122496      -4.38778796      -9.41327238      -7.69380461      -8.64770627
Au       0.00062524       4.51786911      -0.00000425      -0.01992405      12.73900404       0.04126865
Au       0.00050563       6.37992495       2.20420835      -0.05986170       1.06937007      -1.82562485
Au       1.75163347       4.03581238       2.20250872      -3.90453223      -2.46042445       1.61882068
Au       1.81901545       6.68052778       0.00001986      13.97559614       7.35092484       0.00308375
Au      -0.00007316       3.52817756       4.37811203      -0.00445755      -8.22914069      -1.06794223
Au      -0.00020214       5.22829231       6.49564511       0.02624562     -38.76424312      17.76413089
Au       2.25754884       3.56182658       6.21945133      11.30885952     -10.04305019       1.22152328
Au       1.81143425       5.81136259       4.38768919      -9.45320826      -7.69896009       8.69638143
Au       3.56189578      -6.21882381      -2.25800223     -10.02597265      -1.27761625     -11.20734264
Au       3.56201948      -6.21889001       2.25797990     -10.09092584      -1.22675021      11.22337385
Au       5.22761475      -6.49519836      -0.00002952     -38.34949097     -17.70361339       0.03104643
Au       4.38730393      -1.81165418      -5.81179631       8.66899348       9.42987432       7.66277973
Au       4.15773670      -4.15758782      -4.15799432       1.27934152      -1.27997969      -1.25563878
Au       4.03631457      -2.20195644      -1.75199430      -2.56158181      -1.67414502       3.88204163
Au       5.81140072      -4.38729407      -1.81185451      -7.61796009      -8.64629115       9.55717349
Au       6.21901713      -2.25757782      -3.56212486       1.22107974     -11.34206600      10.02951546
Au       3.52861914      -4.37757549      -0.00001993      -8.27735544       1.00198846      -0.00416338
Au       4.03620594      -2.20188531       1.75202321      -2.35577597      -1.75506700      -3.84746996
Au       5.81142259      -4.38730998       1.81184100      -7.68343949      -8.60581447      -9.52515809
Au       6.37948062      -2.20432793      -0.00002774       1.03325979       2.01098616       0.01148245
Au       4.15770006      -4.15768210       4.15803912       1.25570943      -1.31161678       1.27775104
Au       4.38728989      -1.81178286       5.81184157       8.68785475       9.48124409      -7.67531372
Au       6.21899356      -2.25759394       3.56221175       1.19414726     -11.36180365     -10.04098463
Au       4.38724528       1.81161141      -5.81191235       8.62071812      -9.43628314       7.76252195
Au       6.49511244       0.00007691      -5.22894014      17.88538991       0.02852351      38.65179014
Au       4.37788297      -0.00000125      -3.52880604      -1.25932582       0.01669069       8.22905756
Au       4.03596947       2.20201233      -1.75195089      -2.36459221       1.74168129       3.84820931
Au       6.67959398       0.00011575      -1.81764045       7.16546539       0.00977721     -14.53970845
Au       6.21886059       2.25774545      -3.56218919       1.16999418      11.36798941      10.11854277
Au       4.51689224       0.00006746       0.00005349      12.75703447      -0.03112379       0.00707447
Au       4.03599579       2.20203799       1.75203203      -2.53941831       1.69222114      -3.89470007
Au       6.67954859       0.00007283       1.81774123       7.15682119       0.01352124      14.50071073
Au       6.37929469       2.20448238       0.00007370       1.01838519      -1.96024918      -0.02861118
Au       4.37776936      -0.00001517       3.52888777      -1.15942486       0.01571427      -8.28426241
Au       4.38714179       1.81173253       5.81191373       8.75582567      -9.50574719      -7.69748329
Au       6.49501059       0.00006451       5.22904859      17.89647749       0.04660261     -38.73414732
Au       6.21880029       2.25772626       3.56217082       1.20822370      11.36365380     -10.07919884
Au       4.15751753       4.15761664      -4.15802683       1.26013387       1.32772427      -1.18506688
Au       3.56147491       6.21888020      -2.25822526     -10.04078147       1.21349901     -11.20798056
Au       5.81099841       4.38746173      -1.81172560      -7.69687477       8.63970205       9.46603071
Au       3.52802278       4.37730142      -0.00001564      -8.24288837      -0.85431340       0.00377005
Au       3.56153358       6.21889465       2.25821425     -10.01833931       1.21480188      11.21162577
Au       5.81100797       4.38742254       1.81175184      -7.66333453       8.72058492      -9.50892153
Au       5.22660138       6.49560530      -0.00003622     -38.20809102      17.69530021      -0.00421276
Au       4.15754112       4.15766637       4.15804091       1.33974577       1.26302862       1.20305007
