147
Properties=species:S:1:pos:R:3:masses:R:1:forces:R:3:energies:R:1 energy=-415.7709655761719 label=68 n_visit=1 free_energy=-415.7709655761719 pbc="F F F"
Au      -4.30954336      -6.97482397       0.01174101       1.00000000      -0.00009651      -0.00034201       0.00095290      -2.87668443
Au      -5.38150367      -4.75883832      -1.50068746       1.00000000       0.00117895      -0.00006091      -0.00037834      -2.89258003
Au      -6.26455315      -2.44939011      -2.93428406       1.00000000       0.00011068       0.00003571      -0.00027413      -2.89254189
Au      -5.38031131      -4.75414443       1.51904840       1.00000000       0.00060073       0.00023178      -0.00010844      -2.89252520
Au      -6.46698919      -2.47386776       0.00543776       1.00000000       0.00060172       0.00135250      -0.00012134      -2.89562488
Au      -6.26326208      -2.43936013       2.94483618       1.00000000      -0.00021834      -0.00027216      -0.00032625      -2.89249539
Au      -6.97386271      -0.01030428      -4.31141349       1.00000000       0.00037327       0.00028260       0.00140865      -2.87660146
Au      -7.19710328      -0.00801996      -1.42934550       1.00000000      -0.00203575       0.00138395       0.00111352      -2.89243054
Au      -6.26733584       2.43382245      -2.94259698       1.00000000       0.00031096      -0.00028819      -0.00029872      -2.89245772
Au      -7.19668510      -0.00293807       1.43081170       1.00000000      -0.00152100       0.00128009      -0.00043697      -2.89241695
Au      -6.47056150       2.46468068      -0.00427008       1.00000000       0.00070555      -0.00002476       0.00043371      -2.89547944
Au      -6.97237078       0.00495061       4.31328723       1.00000000       0.00012558      -0.00010863      -0.00251681      -2.87661624
Au      -6.26697378       2.44357366       2.93453252       1.00000000       0.00056102       0.00069104       0.00024869      -2.89239311
Au      -5.38734224       4.74855458      -1.51672942       1.00000000       0.00222870       0.00036260      -0.00074677      -2.89254880
Au      -5.38747226       4.75344642       1.50017375       1.00000000       0.00257317       0.00073221       0.00083419      -2.89253950
Au      -4.31751070       6.97002824      -0.01193369       1.00000000       0.00172090       0.00247900      -0.00002718      -2.87664795
Au      -2.93958745      -6.26874217      -2.43191435       1.00000000       0.00114794      -0.00039777       0.00061451      -2.89250565
Au      -1.50999083      -5.38945160      -4.74543651       1.00000000       0.00111655       0.00030973       0.00038751      -2.89231706
Au      -2.93877284      -6.26095438       2.45337546       1.00000000       0.00120439       0.00013849      -0.00062120      -2.89252591
Au      -1.42868631      -7.19695837       0.01260269       1.00000000       0.00099482      -0.00093021      -0.00005091      -2.89243054
Au      -1.50864897      -5.37355680       4.76369185       1.00000000       0.00104936       0.00023262       0.00039252      -2.89236975
Au      -4.75383454      -1.51939822      -5.37892745       1.00000000       0.00019632      -0.00008218      -0.00045230      -2.89229751
Au      -2.44058280      -2.94935011      -6.25915433       1.00000000      -0.00056049      -0.00002105       0.00043149      -2.89221168
Au      -3.99695867      -4.00390680      -3.98946784       1.00000000       0.00126422       0.00007313      -0.00119350      -2.89538646
Au      -3.87416697      -2.39781860      -1.47536562       1.00000000      -0.00040837      -0.00084211      -0.00041126      -2.68942499
Au      -1.47935619      -3.87901028      -2.38713263       1.00000000      -0.00010987       0.00028580      -0.00032140      -2.68933105
Au      -2.39411085      -1.48741057      -3.87113875       1.00000000       0.00100758       0.00089519       0.00006210      -2.68923330
Au      -2.89447408      -4.68392334       0.00802709       1.00000000       0.00060683      -0.00040941       0.00045531      -2.61775541
Au      -3.87394682      -2.39284944       1.48420652       1.00000000       0.00025170      -0.00094897       0.00053945      -2.68933678
Au      -1.47904510      -3.87104541       2.40042950       1.00000000       0.00017827       0.00069850       0.00062583      -2.68931437
Au      -1.45929541      -2.36152113       0.00416971       1.00000000       0.00099672       0.00042247      -0.00023446      -2.87822080
Au      -3.99512418      -3.99053221       4.00451382       1.00000000       0.00035450       0.00029943       0.00025703      -2.89541984
Au      -4.75256465      -1.50116011       5.38482525       1.00000000       0.00042846       0.00098137       0.00096221      -2.89233208
Au      -2.43905636      -2.92679236       6.26989972       1.00000000      -0.00043977      -0.00109466      -0.00047572      -2.89228153
Au      -2.39318645      -1.47374925       3.87626762       1.00000000       0.00014945       0.00018475       0.00070147      -2.68927336
Au      -4.75570727       1.50016694      -5.38314775       1.00000000       0.00104538      -0.00115872      -0.00024161      -2.89235783
Au      -2.46891014      -0.01031534      -6.46568913       1.00000000      -0.00011534      -0.00098113       0.00059446      -2.89522696
Au      -4.68376548      -0.00647806      -2.89476896       1.00000000      -0.00052558      -0.00041129      -0.00099004      -2.61776447
Au      -3.87658663       2.39011994      -1.48382577       1.00000000       0.00025452       0.00008734      -0.00023695      -2.68936515
Au      -2.36166681      -0.00299473      -1.45951974       1.00000000       0.00132575      -0.00084376       0.00162001      -2.87824368
Au      -2.39510030       1.47302740      -3.87630232       1.00000000       0.00062277      -0.00078724       0.00050687      -2.68920183
Au      -4.78893680      -0.00214153       0.00031678       1.00000000      -0.00043048      -0.00022081      -0.00032641      -2.68928385
Au      -3.87657978       2.39499408       1.47542415       1.00000000       0.00052435       0.00091981       0.00018089      -2.68934417
Au      -2.36148043       0.00195721       1.45937043       1.00000000       0.00208389      -0.00049067      -0.00120550      -2.87811184
Au      -1.46120829       2.36055449      -0.00418329       1.00000000       0.00021984       0.00044431       0.00008860      -2.87825823
Au      -4.68287141       0.00348467       2.89553167       1.00000000      -0.00238963      -0.00017387       0.00151180      -2.61777139
Au      -4.75433593       1.51936761       5.37870549       1.00000000       0.00061923      -0.00160021      -0.00061764      -2.89232635
Au      -2.46745784       0.01275940       6.46562501       1.00000000      -0.00061443      -0.00074204      -0.00049766      -2.89527631
Au      -2.39455830       1.48688258       3.87080602       1.00000000       0.00118938      -0.00062459       0.00041446      -2.68924093
Au      -2.44295065       2.92914514      -6.26782772       1.00000000      -0.00000519      -0.00119260      -0.00023386      -2.89222169
Au      -3.99969744       3.98900324      -4.00181117       1.00000000       0.00049620      -0.00074941      -0.00146826      -2.89536405
Au      -2.94361878       6.25871465      -2.45215635       1.00000000       0.00072837      -0.00041983      -0.00052574      -2.89237833
Au      -1.48208694       3.86974958      -2.40021038       1.00000000      -0.00025456      -0.00045375      -0.00102712      -2.68928385
Au      -1.51209928       5.37295853      -4.76286179       1.00000000      -0.00011196      -0.00055389      -0.00092272      -2.89234471
Au      -2.89921054       4.68132252      -0.00796178       1.00000000       0.00153971       0.00047023      -0.00038471      -2.61768293
Au      -2.94332039       6.26784897       2.43047799       1.00000000       0.00076041      -0.00048058      -0.00032869      -2.89238334
Au      -1.48205170       3.87852350       2.38653565       1.00000000       0.00065071      -0.00044278       0.00084633      -2.68929362
Au      -1.43514592       7.19550907      -0.01273091       1.00000000       0.00175493       0.00085148      -0.00004298      -2.89237404
Au      -3.99907328       4.00319338       3.98736896       1.00000000       0.00037515      -0.00081238       0.00256433      -2.89529109
Au      -2.44186141       2.95186385       6.25709731       1.00000000      -0.00002517      -0.00113006       0.00030643      -2.89221835
Au      -1.51096999       5.39091853       4.74351218       1.00000000      -0.00092903      -0.00132409       0.00074996      -2.89234567
Au       0.00203138      -4.32283485      -6.96485207       1.00000000      -0.00044831       0.00100570      -0.00019734      -2.87643170
Au      -0.00043736      -6.47134881      -2.45772613       1.00000000       0.00086831       0.00008098      -0.00140015      -2.89546680
Au       1.50934819      -5.39065184      -4.74344482       1.00000000       0.00101818       0.00070870      -0.00101317      -2.89229870
Au       0.00060735      -6.46353932       2.48029393       1.00000000       0.00038991       0.00106796       0.00105473      -2.89542866
Au       1.43122392      -7.19652564       0.01245730       1.00000000      -0.00152679      -0.00109394       0.00003033      -2.89240813
Au       0.00274790      -4.29926851       6.97951311       1.00000000      -0.00041398       0.00236623       0.00012748      -2.87647867
Au       1.51052203      -5.37450382       4.76252016       1.00000000       0.00026093       0.00117189       0.00080762      -2.89235449
Au       0.00213230      -1.44172597      -7.19220872       1.00000000      -0.00023806       0.00054138      -0.00132928      -2.89210105
Au       2.44418520      -2.95030022      -6.25592724       1.00000000      -0.00033055       0.00064638      -0.00147015      -2.89223313
Au       0.00101786      -2.90339264      -4.67679060       1.00000000      -0.00020251       0.00056735      -0.00152767      -2.61766219
Au       0.00009725      -1.46374244      -2.35782214       1.00000000       0.00082803       0.00054825       0.00047325      -2.87807035
Au       1.48090285      -3.87839886      -2.38636883       1.00000000      -0.00008072      -0.00012081      -0.00135467      -2.68935609
Au       2.39514918      -1.48604805      -3.86941677       1.00000000      -0.00017622      -0.00042440      -0.00168923      -2.68929124
Au       0.00101794      -4.78851502       0.00841848       1.00000000       0.00002937       0.00016526       0.00004130      -2.68934321
Au       0.00049009      -1.45562206       2.36285349       1.00000000       0.00066626       0.00088719      -0.00105338      -2.87802076
Au       1.48114428      -3.87038226       2.40021132       1.00000000      -0.00000359      -0.00006513       0.00062269      -2.68935990
Au       1.46034002      -2.36088450       0.00423482       1.00000000      -0.00033076       0.00065816      -0.00019174      -2.87822986
Au       0.00163331      -2.88737569       4.68659033       1.00000000      -0.00033010       0.00010606       0.00287198      -2.61769795
Au       0.00348797      -1.41647201       7.19655110       1.00000000      -0.00074963       0.00136715       0.00202957      -2.89214945
Au       2.44422916      -2.92763819       6.26700088       1.00000000       0.00027755      -0.00048975       0.00064386      -2.89228106
Au       2.39531363      -1.47232196       3.87492528       1.00000000       0.00046597      -0.00026280       0.00075252      -2.68934250
Au       0.00144684       1.41737611      -7.19716685       1.00000000      -0.00016022      -0.00033049      -0.00083948      -2.89210916
Au       2.47174348      -0.01089878      -6.46353199       1.00000000      -0.00034576       0.00009971       0.00005230      -2.89529061
Au       0.00032541      -0.00821388      -4.78676093       1.00000000       0.00013506       0.00011718      -0.00114912      -2.68917584
Au      -0.00060229       1.45560801      -2.36306553       1.00000000       0.00033634      -0.00033733       0.00032819      -2.87808442
Au       2.36198292      -0.00172842      -1.45860715       1.00000000      -0.00252331      -0.00006869       0.00090737      -2.87809563
Au       2.39459086       1.47401839      -3.87495481       1.00000000      -0.00074478       0.00018563      -0.00128202      -2.68925619
Au       0.00000874       0.00016725      -0.00003000       1.00000000      -0.00120722      -0.00110013      -0.00077337      -3.17181444
Au      -0.00033727       1.46424226       2.35755338       1.00000000       0.00014123      -0.00005955       0.00084198      -2.87811637
Au       2.36182898       0.00346399       1.45848287       1.00000000       0.00044642      -0.00034338       0.00094751      -2.87826180
Au       1.45866227       2.36204995      -0.00432992       1.00000000       0.00016463       0.00029227      -0.00021460      -2.87828398
Au       0.00084982       0.00888412       4.78629187       1.00000000       0.00032507       0.00053740       0.00129370      -2.68916559
Au       0.00262200       1.44353279       7.19121366       1.00000000      -0.00055700      -0.00143208       0.00172367      -2.89202905
Au       2.47257867       0.01243402       6.46312064       1.00000000      -0.00032705      -0.00055447       0.00064747      -2.89538169
Au       2.39480987       1.48808567       3.86947327       1.00000000      -0.00038625      -0.00004599       0.00056489      -2.68932915
Au      -0.00014690       4.29907400      -6.97956564       1.00000000      -0.00082454      -0.00093753      -0.00042085      -2.87641835
Au       2.44280737       2.92922254      -6.26705162       1.00000000      -0.00075706      -0.00066814      -0.00060198      -2.89227414
Au      -0.00043415       2.88729383      -4.68686267       1.00000000      -0.00050568      -0.00016814      -0.00186382      -2.61766887
Au      -0.00425793       6.46292566      -2.48054929       1.00000000       0.00059948      -0.00006628      -0.00054219      -2.89553881
Au       1.47833464       3.87110244      -2.40049271       1.00000000       0.00021642       0.00021978      -0.00026374      -2.68937731
Au       1.50759250       5.37488080      -4.76314442       1.00000000      -0.00034797      -0.00090077       0.00022885      -2.89232254
Au      -0.00294161       4.78853545      -0.00853246       1.00000000       0.00056724      -0.00046024      -0.00019083      -2.68924809
Au      -0.00362579       6.47238139       2.45728271       1.00000000       0.00101757      -0.00075251       0.00016677      -2.89542484
Au       1.47855534       3.88011471       2.38613101       1.00000000       0.00008927      -0.00052640       0.00084055      -2.68934202
Au       1.42567592       7.19711418      -0.01305998       1.00000000      -0.00072211       0.00178211       0.00019827      -2.89243412
Au       0.00008613       2.90468834       4.67609917       1.00000000      -0.00039107      -0.00141709       0.00099431      -2.61764646
Au       0.00074266       4.32486711       6.96359898       1.00000000      -0.00066361      -0.00134447       0.00087992      -2.87640476
Au       2.44332951       2.95172504       6.25629740       1.00000000      -0.00048472      -0.00007328       0.00087829      -2.89233303
Au       1.50875722       5.39221364       4.74324341       1.00000000      -0.00063030      -0.00048044       0.00045611      -2.89231396
Au       2.93915105      -6.26948090      -2.43032845       1.00000000       0.00043813       0.00102226       0.00045545      -2.89239669
Au       2.94015156      -6.26095618       2.45241483       1.00000000      -0.00015549       0.00077633      -0.00060911      -2.89245200
Au       4.31293452      -6.97300137       0.01207547       1.00000000      -0.00096547      -0.00046762       0.00001374      -2.87673330
Au       4.75663613      -1.51918922      -5.37477605       1.00000000      -0.00059254       0.00070417      -0.00167300      -2.89221668
Au       3.99773920      -4.00441529      -3.98715256       1.00000000       0.00005150       0.00129014      -0.00090862      -2.89533162
Au       3.87582441      -2.39589780      -1.47480451       1.00000000      -0.00010757      -0.00112713      -0.00009349      -2.68940806
Au       5.38360280      -4.75652688      -1.50037572       1.00000000      -0.00087589      -0.00030892       0.00029830      -2.89251018
Au       6.26682634      -2.44666291      -2.93262476       1.00000000      -0.00103028       0.00126472      -0.00108904      -2.89249969
Au       2.89678629      -4.68266701       0.00834055       1.00000000      -0.00095119      -0.00088353      -0.00030924      -2.61778164
Au       3.87571168      -2.39087086       1.48364170       1.00000000      -0.00015734      -0.00016631       0.00025239      -2.68941331
Au       5.38369275      -4.75135669       1.51734067       1.00000000      -0.00094054      -0.00039384      -0.00042730      -2.89254713
Au       6.46952396      -2.46839806       0.00482749       1.00000000      -0.00070090       0.00061978      -0.00116611      -2.89536071
Au       3.99789934      -3.99037744       4.00168802       1.00000000       0.00052618       0.00097423       0.00056832      -2.89536476
Au       4.75719116      -1.50146512       5.38012906       1.00000000      -0.00133990       0.00232854       0.00178018      -2.89233136
Au       6.26725657      -2.43621253       2.94101964       1.00000000      -0.00160806       0.00068274       0.00187024      -2.89254761
Au       4.75590579       1.50168404      -5.38076905       1.00000000      -0.00089910      -0.00025496      -0.00125816      -2.89221692
Au       6.97575141      -0.00645783      -4.30817428       1.00000000      -0.00230050       0.00095541      -0.00019248      -2.87662268
Au       4.68482238      -0.00389139      -2.89272455       1.00000000       0.00132455       0.00025161      -0.00268006      -2.61779332
Au       3.87410455       2.39322283      -1.48360757       1.00000000       0.00013750       0.00049563       0.00022389      -2.68936944
Au       7.19922034      -0.00003744      -1.42834774       1.00000000       0.00015671      -0.00036669      -0.00080035      -2.89238620
Au       6.26462895       2.43961968      -2.94269728       1.00000000      -0.00050573      -0.00131213       0.00015732      -2.89247394
Au       4.79016952       0.00130533       0.00017769       1.00000000      -0.00024207       0.00034813       0.00056095      -2.68934441
Au       3.87426603       2.39841187       1.47485370       1.00000000      -0.00056271       0.00001525      -0.00016657      -2.68933392
Au       7.19947059       0.00570492       1.42899900       1.00000000      -0.00082633      -0.00107133      -0.00037063      -2.89243746
Au       6.46742808       2.47246424      -0.00466907       1.00000000      -0.00056036       0.00028887      -0.00004052      -2.89541650
Au       4.68476873       0.00615311       2.89314089       1.00000000      -0.00153339       0.00041670       0.00021957      -2.61773515
Au       4.75628107       1.52069421       5.37546822       1.00000000      -0.00161159       0.00032770       0.00095824      -2.89225578
Au       6.97516767       0.00851793       4.30875624       1.00000000       0.00085261       0.00121674       0.00083298      -2.87667513
Au       6.26488381       2.44974283       2.93353842       1.00000000      -0.00077733      -0.00066687       0.00008948      -2.89248610
Au       3.99571814       3.99241753      -4.00212568       1.00000000      -0.00058131      -0.00099663      -0.00063130      -2.89532065
Au       2.93509522       6.26268704      -2.45261604       1.00000000       0.00130609      -0.00055627      -0.00041799      -2.89242768
Au       5.38033479       4.75440317      -1.51790016       1.00000000      -0.00057449       0.00003251       0.00034861      -2.89250207
Au       2.89336578       4.68474473      -0.00853374       1.00000000      -0.00079286      -0.00058377      -0.00054301      -2.61777329
Au       2.93636637       6.27143746       2.42960969       1.00000000       0.00017721      -0.00052315       0.00004857      -2.89239073
Au       5.38048218       4.75961537       1.50010741       1.00000000      -0.00035749       0.00041308      -0.00016888      -2.89247274
Au       4.30854935       6.97552430      -0.01327785       1.00000000      -0.00145169       0.00084217       0.00064845      -2.87659931
Au       3.99614671       4.00646943       3.98743022       1.00000000       0.00016094      -0.00089542       0.00042292      -2.89535999
